# Time	Cd	Cl	Cm
0.001	1005.17	0.0275241	-7.07465e-05
0.002	1.58141	0.0180627	-0.000265566
0.003	43.9472	-0.00190527	-5.44096e-05
0.004	26.6707	-0.00117668	-6.63253e-05
0.005	22.1233	-0.00226517	-1.41807e-05
0.006	19.2222	-0.000978681	-1.57784e-05
0.007	17.4571	-0.000913133	-1.28218e-05
0.008	16.1387	-0.000835873	-1.27787e-05
0.009	15.1303	-0.000697501	-4.39423e-06
0.01	14.32	-0.00218498	-6.77851e-05
0.011	13.6578	-0.00225677	-6.47094e-05
0.012	13.0706	-0.00202259	-5.27684e-05
0.013	12.557	-0.00194458	-5.27147e-05
0.014	12.1009	-0.00179286	-4.67961e-05
0.015	11.6768	-0.0016784	-4.23591e-05
0.016	11.2837	-0.00159726	-4.15784e-05
0.017	10.9194	-0.00150012	-4.24762e-05
0.018	10.5813	-0.00142661	-4.22408e-05
0.019	10.2708	-0.00134477	-4.64162e-05
0.02	9.98468	-0.00130188	-4.31789e-05
0.021	9.72639	-0.00132051	-4.92128e-05
0.022	9.48659	-0.0012577	-4.65015e-05
0.023	9.26666	-0.00122592	-4.57354e-05
0.024	9.0641	-0.00115254	-4.43761e-05
0.025	8.87475	-0.00111708	-4.48336e-05
0.026	8.70076	-0.00109967	-4.10972e-05
0.027	8.53903	-0.0010519	-3.95699e-05
0.028	8.38993	-0.00101988	-3.86718e-05
0.029	8.24901	-0.00100041	-3.7564e-05
0.03	8.11822	-0.000965822	-3.62819e-05
0.031	7.99426	-0.000916807	-3.25269e-05
0.032	7.87849	-0.000905862	-3.21047e-05
0.033	7.76561	-0.000866483	-3.19662e-05
0.034	7.66043	-0.000846462	-3.10401e-05
0.035	7.55824	-0.000848744	-2.9807e-05
0.036	7.46273	-0.000810114	-2.94396e-05
0.037	7.37016	-0.000792301	-2.93389e-05
0.038	7.28167	-0.000776818	-2.87472e-05
0.039	7.1965	-0.000743757	-2.92719e-05
0.04	7.11465	-0.000758925	-2.57795e-05
0.041	7.03649	-0.000745512	-2.68161e-05
0.042	6.9617	-0.000717192	-2.27391e-05
0.043	6.88827	-0.000702126	-2.6469e-05
0.044	6.81849	-0.000706908	-2.32754e-05
0.045	6.75015	-0.000673751	-2.32098e-05
0.046	6.68451	-0.00067725	-2.18518e-05
0.047	6.62112	-0.000657082	-2.19805e-05
0.048	6.5597	-0.00062672	-2.04851e-05
0.049	6.5007	-0.000665464	-2.05556e-05
0.05	6.44298	-0.000624013	-1.9949e-05
0.051	6.38696	-0.000609069	-1.73454e-05
0.052	6.33246	-0.00061345	-1.94127e-05
0.053	6.27957	-0.00059606	-1.75099e-05
0.054	6.22848	-0.000585486	-1.72451e-05
0.055	6.17874	-0.000560991	-1.56968e-05
0.056	6.11918	-0.000926476	-3.17947e-05
0.057	6.07517	-0.000921916	-3.00997e-05
0.058	6.03196	-0.000874971	-2.04901e-05
0.059	5.98955	-0.000934699	-2.56936e-05
0.06	5.94869	-0.000887553	-1.58068e-05
0.061	5.9081	-0.000899729	-1.72886e-05
0.062	5.86865	-0.000867913	-1.15985e-05
0.063	5.83004	-0.000881062	-1.36725e-05
0.064	5.79226	-0.000825676	-7.56635e-06
0.065	5.75504	-0.000872767	-8.02489e-06
0.066	5.71914	-0.000839737	-7.27399e-06
0.067	5.68385	-0.000848668	-8.51187e-06
0.068	5.64896	-0.000810081	-5.44009e-06
0.069	5.61496	-0.000816757	-3.40265e-06
0.07	5.5818	-0.000819334	-1.82757e-06
0.071	5.5488	-0.000777163	-4.63364e-06
0.072	5.51686	-0.000805087	-1.63228e-06
0.073	5.48528	-0.000779117	-2.98716e-06
0.074	5.45435	-0.000769306	1.52211e-06
0.075	5.42353	-0.000749535	-1.1812e-06
0.076	5.3934	-0.000726753	3.57179e-06
0.077	5.36405	-0.000763584	-2.19395e-06
0.078	5.3351	-0.000758455	-2.85466e-06
0.079	5.30688	-0.00073695	-3.25525e-07
0.08	5.27877	-0.000718234	-1.46224e-07
0.081	5.25125	-0.000730449	-1.71325e-07
0.082	5.22397	-0.000673853	9.5348e-07
0.083	5.19705	-0.000719946	-1.76462e-06
0.084	5.17071	-0.000645928	6.97522e-06
0.085	5.14502	-0.000732724	-2.67844e-06
0.086	5.11973	-0.000664057	3.45798e-06
0.087	5.09456	-0.000678148	-2.03676e-06
0.088	5.07003	-0.000683521	1.73459e-06
0.089	5.04551	-0.000628541	-1.21409e-06
0.09	5.02137	-0.000640822	2.78889e-06
0.091	4.99769	-0.000625769	4.95463e-08
0.092	4.97415	-0.000602879	-5.45573e-07
0.093	4.95106	-0.000630299	2.46014e-06
0.094	4.92808	-0.000611718	4.41772e-06
0.095	4.90561	-0.000624689	4.48238e-07
0.096	4.88343	-0.000592243	5.59892e-06
0.097	4.86143	-0.00060941	1.46406e-06
0.098	4.83982	-0.000594298	2.99198e-06
0.099	4.8185	-0.000657621	4.99304e-06
0.1	4.79736	-0.000587921	2.69671e-06
0.101	4.77637	-0.000584918	4.88103e-06
0.102	4.75583	-0.000578668	3.39356e-06
0.103	4.73531	-0.000580474	2.49597e-06
0.104	4.71529	-0.000564133	3.59716e-06
0.105	4.69535	-0.000516133	3.61044e-06
0.106	4.67563	-0.000564786	4.02784e-06
0.107	4.65655	-0.000548684	3.02774e-06
0.108	4.63746	-0.000577371	1.6435e-06
0.109	4.61889	-0.000483664	5.45023e-06
0.11	4.6	-0.000571595	3.015e-06
0.111	4.58137	-0.000469825	4.95221e-06
0.112	4.56301	-0.000539314	3.75163e-06
0.113	4.54489	-0.00046273	3.30145e-06
0.114	4.52704	-0.000523255	4.64436e-06
0.115	4.50925	-0.000463012	4.64361e-06
0.116	4.49159	-0.000501856	5.70771e-06
0.117	4.47406	-0.000487022	6.02833e-06
0.118	4.45697	-0.000470072	2.81168e-06
0.119	4.44005	-0.0004604	7.83326e-06
0.12	4.42311	-0.000446367	4.67611e-06
0.121	4.40649	-0.000461333	5.87705e-06
0.122	4.38988	-0.000449097	4.56328e-06
0.123	4.37359	-0.000414165	4.13725e-06
0.124	4.3575	-0.000460935	5.55521e-06
0.125	4.34157	-0.000454038	4.2339e-06
0.126	4.32592	-0.000453434	4.02027e-06
0.127	4.31011	-0.000413891	6.44576e-06
0.128	4.29468	-0.000434952	5.72385e-06
0.129	4.27898	-0.000380866	6.81699e-06
0.13	4.26408	-0.000472314	4.61683e-06
0.131	4.24928	-0.000391814	8.96161e-06
0.132	4.23418	-0.000416711	7.02357e-06
0.133	4.2195	-0.000408995	9.43649e-06
0.134	4.20468	-0.000420948	7.72852e-06
0.135	4.19025	-0.000400771	8.46316e-06
0.136	4.17586	-0.000396866	8.73838e-06
0.137	4.16164	-0.000392214	9.2028e-06
0.138	4.14757	-0.000390325	1.00497e-05
0.139	4.13365	-0.000390448	8.669e-06
0.14	4.1199	-0.000382871	1.01143e-05
0.141	4.1062	-0.000369206	9.54522e-06
0.142	4.09263	-0.000372306	1.07586e-05
0.143	4.07917	-0.000373031	1.24068e-05
0.144	4.06585	-0.000362307	9.05912e-06
0.145	4.05279	-0.000337502	1.3401e-05
0.146	4.03955	-0.000353012	1.20229e-05
0.147	4.02669	-0.00041187	1.26533e-05
0.148	4.01367	-0.000416544	1.30126e-05
0.149	4.00099	-0.000357799	1.25721e-05
0.15	3.9883	-0.000354233	1.28233e-05
0.151	3.97577	-0.000381043	1.12508e-05
0.152	3.96337	-0.000334388	1.16393e-05
0.153	3.95114	-0.000400979	1.14948e-05
0.154	3.93901	-0.000296253	1.40828e-05
0.155	3.9269	-0.000387334	1.30172e-05
0.156	3.91501	-0.000305988	1.50506e-05
0.157	3.90322	-0.000350295	1.30916e-05
0.158	3.89143	-0.000317231	1.61893e-05
0.159	3.87982	-0.000324205	1.48575e-05
0.16	3.86825	-0.000301283	1.57125e-05
0.161	3.85679	-0.000306053	1.54683e-05
0.162	3.84549	-0.000316212	1.64365e-05
0.163	3.83415	-0.00031299	1.68623e-05
0.164	3.82308	-0.00030169	1.7089e-05
0.165	3.81196	-0.000309372	1.74086e-05
0.166	3.80107	-0.000295683	1.55618e-05
0.167	3.79021	-0.000322434	1.75262e-05
0.168	3.77951	-0.000300725	1.7872e-05
0.169	3.76883	-0.000291832	1.74794e-05
0.17	3.75824	-0.000300411	1.70154e-05
0.171	3.74773	-0.00028891	2.04651e-05
0.172	3.7373	-0.000293643	1.77215e-05
0.173	3.72701	-0.000304275	1.98255e-05
0.174	3.71674	-0.000253646	1.8293e-05
0.175	3.7065	-0.000299878	2.02692e-05
0.176	3.69645	-0.000264506	2.0464e-05
0.177	3.68648	-0.000285776	2.05134e-05
0.178	3.67655	-0.000272504	2.11956e-05
0.179	3.6667	-0.000271528	2.0906e-05
0.18	3.65687	-0.000265518	2.19577e-05
0.181	3.64722	-0.000274495	2.17968e-05
0.182	3.63758	-0.000268719	2.13092e-05
0.183	3.6281	-0.000271729	2.01354e-05
0.184	3.61871	-0.00026372	2.13284e-05
0.185	3.60943	-0.000270114	2.07594e-05
0.186	3.60016	-0.000257496	2.15964e-05
0.187	3.59098	-0.00027509	2.05532e-05
0.188	3.58191	-0.000250085	2.41791e-05
0.189	3.5728	-0.000260859	2.04461e-05
0.19	3.56382	-0.000255153	2.38668e-05
0.191	3.55489	-0.000255017	2.20881e-05
0.192	3.54605	-0.0002549	2.33495e-05
0.193	3.53736	-0.000240539	2.25144e-05
0.194	3.5287	-0.000258089	2.35044e-05
0.195	3.52009	-0.000245489	2.35828e-05
0.196	3.51156	-0.000249927	2.38966e-05
0.197	3.50309	-0.000236957	2.40738e-05
0.198	3.49469	-0.000241321	2.38668e-05
0.199	3.48639	-0.00023312	2.35889e-05
0.2	3.47812	-0.000236789	2.5322e-05
0.201	3.46981	-0.000201945	2.44358e-05
0.202	3.4616	-0.000251871	2.45822e-05
0.203	3.45353	-0.000232292	2.51614e-05
0.204	3.44551	-0.000236347	2.5094e-05
0.205	3.43753	-0.000208418	2.54725e-05
0.206	3.42968	-0.000229696	2.38692e-05
0.207	3.42183	-0.000224563	2.55128e-05
0.208	3.41407	-0.000231988	2.58642e-05
0.209	3.4064	-0.000212121	2.39653e-05
0.21	3.39877	-0.000223629	2.74035e-05
0.211	3.39116	-0.000205647	2.42895e-05
0.212	3.38365	-0.000193961	2.68588e-05
0.213	3.37619	-0.000221114	2.60091e-05
0.214	3.36879	-0.000215464	2.63432e-05
0.215	3.36144	-0.000210192	2.64088e-05
0.216	3.35414	-0.000214667	2.68158e-05
0.217	3.34683	-0.000207347	2.68011e-05
0.218	3.33963	-0.000190053	2.68639e-05
0.219	3.33247	-0.000189326	2.79811e-05
0.22	3.32545	-0.000239075	2.44968e-05
0.221	3.31847	-0.000211335	2.64638e-05
0.222	3.31152	-0.000207196	2.6306e-05
0.223	3.30462	-0.00021771	2.60989e-05
0.224	3.2978	-0.000198946	2.5537e-05
0.225	3.29101	-0.000201426	2.6886e-05
0.226	3.28433	-0.000206338	2.68954e-05
0.227	3.27763	-0.000193417	2.70644e-05
0.228	3.27107	-0.000202597	2.66727e-05
0.229	3.26432	-0.000176952	2.76694e-05
0.23	3.25772	-0.000174536	2.77368e-05
0.231	3.25116	-0.000203319	2.78136e-05
0.232	3.24471	-0.000186716	2.75196e-05
0.233	3.23829	-0.000186245	2.81982e-05
0.234	3.23195	-0.000183012	2.64941e-05
0.235	3.22564	-0.00018206	2.84005e-05
0.236	3.21935	-0.000202703	2.65763e-05
0.237	3.21322	-0.000210489	2.49372e-05
0.238	3.20705	-0.000172414	2.94158e-05
0.239	3.20092	-0.00017963	2.73103e-05
0.24	3.19482	-0.000172213	2.8455e-05
0.241	3.18875	-0.000198509	2.83646e-05
0.242	3.18278	-0.000183808	2.80934e-05
0.243	3.17684	-0.000182154	2.85942e-05
0.244	3.17095	-0.000173522	2.84256e-05
0.245	3.1651	-0.000173342	2.84057e-05
0.246	3.1593	-0.000180236	2.90232e-05
0.247	3.15353	-0.000156105	2.87544e-05
0.248	3.14782	-0.000206582	2.79086e-05
0.249	3.14213	-0.000215413	2.71663e-05
0.25	3.13648	-0.000148741	2.90903e-05
0.251	3.13087	-0.000172398	2.94101e-05
0.252	3.12531	-0.000164092	2.90672e-05
0.253	3.11979	-0.000174242	2.87296e-05
0.254	3.11431	-0.000165151	2.90196e-05
0.255	3.10887	-0.000174024	2.90355e-05
0.256	3.10351	-0.000167114	2.8502e-05
0.257	3.09817	-0.000164623	2.8564e-05
0.258	3.09286	-0.000164871	2.88041e-05
0.259	3.08758	-0.000161669	2.85968e-05
0.26	3.08236	-0.000171071	2.9113e-05
0.261	3.07706	-0.000151683	2.87277e-05
0.262	3.07188	-0.000158328	3.0305e-05
0.263	3.06663	-0.00015656	2.79208e-05
0.264	3.06156	-0.000171273	2.94347e-05
0.265	3.05649	-0.000156843	2.78015e-05
0.266	3.05149	-0.000161305	2.83206e-05
0.267	3.04648	-0.000166493	2.74471e-05
0.268	3.04156	-0.000157279	2.83657e-05
0.269	3.03664	-0.000163894	2.86255e-05
0.27	3.03175	-0.000156611	2.87317e-05
0.271	3.02692	-0.000159892	2.68011e-05
0.272	3.02211	-0.000156329	2.80412e-05
0.273	3.01733	-0.000168471	2.70431e-05
0.274	3.01259	-0.000141722	2.80564e-05
0.275	3.00789	-0.000155096	2.76898e-05
0.276	3.0032	-0.000130658	2.81733e-05
0.277	2.99853	-0.000140063	2.7485e-05
0.278	2.9939	-0.000138565	2.6774e-05
0.279	2.98932	-0.00016692	2.94395e-05
0.28	2.98477	-0.000157538	2.92842e-05
0.281	2.98026	-0.000160126	2.88349e-05
0.282	2.97579	-0.000156774	2.88008e-05
0.283	2.97134	-0.000154195	2.87231e-05
0.284	2.96693	-0.00016072	2.91359e-05
0.285	2.96253	-0.000142903	2.78274e-05
0.286	2.95815	-0.000154279	2.89933e-05
0.287	2.95383	-0.000144864	2.84395e-05
0.288	2.94952	-0.000143844	2.87165e-05
0.289	2.94525	-0.00014177	2.85105e-05
0.29	2.941	-0.000141856	2.85748e-05
0.291	2.93679	-0.000142599	2.83644e-05
0.292	2.93261	-0.000144174	2.81284e-05
0.293	2.92845	-0.000150689	2.85304e-05
0.294	2.92435	-0.000166671	3.03022e-05
0.295	2.92027	-0.000149387	2.83764e-05
0.296	2.91621	-0.000152623	2.85103e-05
0.297	2.91218	-0.000137444	2.91957e-05
0.298	2.90813	-0.000124227	2.8424e-05
0.299	2.90409	-0.000139358	2.83045e-05
0.3	2.90011	-9.77119e-05	2.95905e-05
0.301	2.89609	-0.000121988	2.84453e-05
0.302	2.89211	-9.13868e-05	2.9615e-05
0.303	2.88823	-0.000104517	2.87976e-05
0.304	2.8844	-9.94757e-05	2.6629e-05
0.305	2.88065	-6.70571e-05	2.7862e-05
0.306	2.87691	-0.000104686	2.63498e-05
0.307	2.87314	-9.40568e-05	2.74275e-05
0.308	2.86942	-0.000129723	2.54613e-05
0.309	2.86571	-0.000159996	2.60986e-05
0.31	2.862	-0.000187224	2.42282e-05
0.311	2.85836	-0.000215654	2.5073e-05
0.312	2.85469	-0.000215813	2.22898e-05
0.313	2.85113	-0.000201304	2.42709e-05
0.314	2.84754	-0.00020022	2.36094e-05
0.315	2.84396	-0.000191076	2.45791e-05
0.316	2.8404	-0.000181579	2.43138e-05
0.317	2.83687	-0.000169768	2.44834e-05
0.318	2.83336	-0.000167056	2.45931e-05
0.319	2.82986	-0.000164058	2.46875e-05
0.32	2.8264	-0.000161073	2.46696e-05
0.321	2.82295	-0.000154788	2.4665e-05
0.322	2.81952	-0.000157333	2.40034e-05
0.323	2.81613	-0.000160854	2.40061e-05
0.324	2.81276	-0.000157025	2.29588e-05
0.325	2.80939	-0.000150528	2.50504e-05
0.326	2.80604	-0.0001509	2.39044e-05
0.327	2.80271	-0.000152222	2.42201e-05
0.328	2.7994	-0.0001434	2.36232e-05
0.329	2.79612	-0.0001468	2.36609e-05
0.33	2.79285	-0.000142029	2.32937e-05
0.331	2.78961	-0.000145778	2.3982e-05
0.332	2.7864	-0.000142562	2.39237e-05
0.333	2.7832	-0.000134392	2.40608e-05
0.334	2.78001	-0.000230993	2.04566e-05
0.335	2.77684	-0.000136931	2.37418e-05
0.336	2.77371	-0.000149945	2.32106e-05
0.337	2.77059	-0.000145092	2.32022e-05
0.338	2.76749	-0.000149599	2.29236e-05
0.339	2.76439	-0.000148377	2.26698e-05
0.34	2.76133	-0.000209181	2.05473e-05
0.341	2.75831	-8.66301e-05	2.53145e-05
0.342	2.75529	-0.000204473	2.15836e-05
0.343	2.75232	-8.8858e-05	2.54547e-05
0.344	2.7493	-0.000179617	2.20775e-05
0.345	2.74634	-4.3027e-05	2.576e-05
0.346	2.7434	-0.000138967	2.27164e-05
0.347	2.74048	-0.000124059	2.3778e-05
0.348	2.73748	-0.000175112	2.06386e-05
0.349	2.73464	-0.000168213	2.10837e-05
0.35	2.73177	-0.000151664	2.13772e-05
0.351	2.72895	-0.000147632	2.09649e-05
0.352	2.72611	-0.00015221	2.15079e-05
0.353	2.7233	-0.000143525	2.0906e-05
0.354	2.7205	-0.000146688	2.09805e-05
0.355	2.71772	-0.00014126	2.12482e-05
0.356	2.71489	-0.000143725	2.09138e-05
0.357	2.71213	-0.000140365	2.07516e-05
0.358	2.70932	3.40664e-05	2.6392e-05
0.359	2.7066	-0.000130955	2.12933e-05
0.36	2.70389	-0.000160928	1.9771e-05
0.361	2.70121	-0.000157008	1.98795e-05
0.362	2.69853	-0.000151917	1.98455e-05
0.363	2.69586	-0.000150567	1.98717e-05
0.364	2.6932	-0.000148665	2.00239e-05
0.365	2.69061	-0.000146924	1.88321e-05
0.366	2.68801	-0.000147288	1.94182e-05
0.367	2.68541	-0.000145027	1.93549e-05
0.368	2.68285	-0.000143195	1.87602e-05
0.369	2.68028	-0.000147881	1.97634e-05
0.37	2.67773	-0.000140505	1.88539e-05
0.371	2.6752	-0.000142212	1.91592e-05
0.372	2.67267	-0.000137248	1.86564e-05
0.373	2.67018	-0.000144113	1.93061e-05
0.374	2.66768	-0.000136804	1.91024e-05
0.375	2.6652	-0.000170569	1.64358e-05
0.376	2.66275	-0.000140474	1.91244e-05
0.377	2.66028	-0.000137784	1.91041e-05
0.378	2.65785	-0.000140299	1.74573e-05
0.379	2.65544	-0.000138758	1.80239e-05
0.38	2.65303	-0.0001384	1.81418e-05
0.381	2.65064	-0.000115092	1.93083e-05
0.382	2.64825	-0.000133725	1.81657e-05
0.383	2.64588	-0.000133019	1.80811e-05
0.384	2.64352	-0.000131922	1.79831e-05
0.385	2.64118	-0.000129668	1.79549e-05
0.386	2.63885	-9.26003e-05	1.99633e-05
0.387	2.63653	-0.000122738	1.7873e-05
0.388	2.63422	-0.000164669	1.57559e-05
0.389	2.63191	-0.000183356	1.47003e-05
0.39	2.62962	-0.000135447	1.66752e-05
0.391	2.62733	-0.000142823	1.79894e-05
0.392	2.6251	-0.000135551	1.74116e-05
0.393	2.62287	-0.000140681	1.77135e-05
0.394	2.62065	-0.000230833	1.33138e-05
0.395	2.61844	-1.68138e-05	2.26204e-05
0.396	2.61621	-0.000247543	1.24473e-05
0.397	2.61401	-4.66962e-05	2.11335e-05
0.398	2.61183	-0.000190461	1.47949e-05
0.399	2.60966	-0.000104897	1.84752e-05
0.4	2.6075	-0.000147235	1.65098e-05
0.401	2.60532	-0.000133805	1.70452e-05
0.402	2.60313	-0.000138107	1.63424e-05
0.403	2.60109	-0.000147449	1.79835e-05
0.404	2.59898	-0.000130899	1.67501e-05
0.405	2.59685	-0.000141968	1.6167e-05
0.406	2.5948	-0.000132972	1.74539e-05
0.407	2.59269	-0.000139183	1.61449e-05
0.408	2.59063	-0.000118619	1.65557e-05
0.409	2.58848	-0.000147532	1.64337e-05
0.41	2.58645	-0.00014193	1.63258e-05
0.411	2.58443	-0.000134905	1.61952e-05
0.412	2.58241	-0.000133769	1.60441e-05
0.413	2.5804	-0.000134492	1.60588e-05
0.414	2.5784	-0.000132872	1.60569e-05
0.415	2.57641	-0.000126209	1.60425e-05
0.416	2.57443	-0.000104604	1.75645e-05
0.417	2.57246	-0.000216423	1.18787e-05
0.418	2.57051	-0.000130593	1.4972e-05
0.419	2.56857	-0.000137529	1.53535e-05
0.42	2.56664	-0.00013727	1.56624e-05
0.421	2.56471	-0.000135427	1.53069e-05
0.422	2.5628	-9.5842e-05	1.80964e-05
0.423	2.56088	-0.000224424	1.02916e-05
0.424	2.55901	-4.60957e-05	1.91161e-05
0.425	2.5571	-0.000222064	1.11991e-05
0.426	2.55525	-7.81188e-05	1.74704e-05
0.427	2.55337	-0.000173319	1.32442e-05
0.428	2.55152	-0.000119123	1.54888e-05
0.429	2.54967	-0.000147691	1.42405e-05
0.43	2.54784	-0.000132082	1.48987e-05
0.431	2.546	-0.000138425	1.45722e-05
0.432	2.54419	-0.000112242	1.56904e-05
0.433	2.54238	-0.000124784	1.52019e-05
0.434	2.54057	-0.000216194	9.43541e-06
0.435	2.53877	-0.000141074	1.39426e-05
0.436	2.53698	-0.000145642	1.39473e-05
0.437	2.53521	-0.000137845	1.38712e-05
0.438	2.53347	-6.34358e-05	1.75945e-05
0.439	2.53173	-0.000131602	1.36975e-05
0.44	2.52999	-0.000213253	9.69229e-06
0.441	2.52825	-4.43863e-05	1.96426e-05
0.442	2.52653	-0.000219933	8.66136e-06
0.443	2.52481	-7.22664e-05	1.77419e-05
0.444	2.5231	-0.000177111	1.10667e-05
0.445	2.5214	-0.000115267	1.46389e-05
0.446	2.51971	-7.86555e-07	1.99063e-05
0.447	2.51803	-0.00013832	1.33744e-05
0.448	2.51636	-0.000164589	1.20423e-05
0.449	2.51469	-0.000134801	1.34147e-05
0.45	2.51304	-0.000147897	1.33457e-05
0.451	2.51138	-0.000147653	1.32702e-05
0.452	2.50974	-0.000148895	1.2315e-05
0.453	2.50808	-0.000152538	1.19223e-05
0.454	2.50643	-0.000145214	1.2447e-05
0.455	2.50482	-0.00011171	1.49124e-05
0.456	2.50322	-0.000154406	1.1686e-05
0.457	2.50162	-0.000149958	1.1888e-05
0.458	2.50003	-0.000148341	1.19361e-05
0.459	2.49845	-0.000147227	1.19193e-05
0.46	2.49687	-0.00014667	1.1972e-05
0.461	2.4953	-0.000145709	1.18559e-05
0.462	2.49374	-0.000145137	1.18327e-05
0.463	2.49218	-0.000145096	1.18867e-05
0.464	2.49063	-0.00014343	1.16584e-05
0.465	2.4891	-0.0001378	1.24192e-05
0.466	2.48758	-0.000137061	1.24326e-05
0.467	2.48607	-0.000128871	1.34316e-05
0.468	2.48456	-0.000223005	6.8487e-06
0.469	2.48304	-0.000151032	1.209e-05
0.47	2.48155	-0.000145994	1.2031e-05
0.471	2.48006	-0.000147861	1.20771e-05
0.472	2.47858	-0.000148174	1.20332e-05
0.473	2.47711	-0.000147355	1.19079e-05
0.474	2.47563	-0.000207991	7.68255e-06
0.475	2.47419	-8.95637e-05	1.61161e-05
0.476	2.47272	-0.000193763	8.61327e-06
0.477	2.47129	-0.000136864	1.28125e-05
0.478	2.46985	-0.000131126	1.29473e-05
0.479	2.46843	-0.000123165	1.37e-05
0.48	2.46701	-0.000145491	1.2293e-05
0.481	2.46561	-0.00014367	1.17086e-05
0.482	2.46419	-0.000146817	1.18227e-05
0.483	2.46279	-0.000146279	1.16718e-05
0.484	2.4614	-0.000147873	1.16087e-05
0.485	2.46001	-0.000106886	1.47657e-05
0.486	2.45864	-0.000159759	1.05428e-05
0.487	2.45727	-0.000152048	1.08271e-05
0.488	2.45589	-0.00015049	1.09487e-05
0.489	2.45452	-0.000149711	1.10098e-05
0.49	2.45315	-0.000149418	1.10407e-05
0.491	2.45179	-0.000149245	1.1075e-05
0.492	2.45043	-0.00014896	1.11763e-05
0.493	2.44912	-0.000151096	1.02521e-05
0.494	2.44779	-0.000150833	1.09381e-05
0.495	2.44646	-0.00015098	1.08974e-05
0.496	2.44514	-9.31802e-05	1.41679e-05
0.497	2.44385	-0.00011651	1.29172e-05
0.498	2.44254	-0.000133506	1.20309e-05
0.499	2.44127	-0.000123836	1.24786e-05
0.5	2.43995	-0.000229832	4.58841e-06
0.501	2.43866	-0.000153499	1.02317e-05
0.502	2.43737	-0.000144164	1.12949e-05
0.503	2.4361	-0.000152686	1.05588e-05
0.504	2.43484	1.27235e-05	2.04477e-05
0.505	2.43357	-0.000259298	3.07624e-06
0.506	2.4323	-7.68797e-05	1.63473e-05
0.507	2.43107	-0.000229907	4.82552e-06
0.508	2.42982	-9.79629e-05	1.44376e-05
0.509	2.42859	-0.000182673	8.92022e-06
0.51	2.42735	-0.000123029	1.10175e-05
0.511	2.42612	-0.000164109	9.95043e-06
0.512	2.42489	-0.000152801	1.03134e-05
0.513	2.42367	-0.000110153	1.39607e-05
0.514	2.42247	-0.000167646	8.96803e-06
0.515	2.42126	-0.000160178	9.80397e-06
0.516	2.42007	-0.000163119	1.05342e-05
0.517	2.41888	-0.00016194	1.06262e-05
0.518	2.41768	-0.000157258	1.03866e-05
0.519	2.41651	-0.000158049	1.04632e-05
0.52	2.41534	-0.000156307	1.04086e-05
0.521	2.41418	-0.000156202	1.04094e-05
0.522	2.41302	-0.000155389	1.0386e-05
0.523	2.41186	-0.000154228	1.0371e-05
0.524	2.41071	-0.000155165	1.04566e-05
0.525	2.40936	-0.000160439	1.39016e-05
0.526	2.408	-0.000148784	9.92244e-06
0.527	2.40694	-0.00014584	1.02896e-05
0.528	2.40587	-0.000138586	1.09312e-05
0.529	2.40479	-0.000217046	3.99561e-06
0.53	2.40368	-0.000151585	9.82107e-06
0.531	2.40259	-0.000155883	9.5789e-06
0.532	2.40149	-0.000145152	1.01177e-05
0.533	2.40041	-0.000134001	1.05945e-05
0.534	2.39932	-0.000148021	8.64671e-06
0.535	2.39822	-0.00014555	1.08657e-05
0.536	2.39716	-0.000183634	8.58741e-06
0.537	2.39607	-0.000105187	1.41049e-05
0.538	2.39502	-0.000174418	8.91639e-06
0.539	2.39394	-0.000159345	9.83579e-06
0.54	2.39288	-0.000149215	1.05656e-05
0.541	2.39182	-0.000144734	1.08119e-05
0.542	2.39076	-0.000164249	8.92861e-06
0.543	2.38969	-0.000220389	6.35976e-06
0.544	2.38862	-1.31154e-05	1.96379e-05
0.545	2.38761	-0.000191506	6.83198e-06
0.546	2.38656	-0.000179311	7.68907e-06
0.547	2.38551	-0.000171857	7.94861e-06
0.548	2.38447	-0.00017015	8.39281e-06
0.549	2.38345	-0.000167351	8.43343e-06
0.55	2.38242	-0.000165741	8.58337e-06
0.551	2.3814	-0.000163631	8.61281e-06
0.552	2.38038	-0.000161999	8.66523e-06
0.553	2.37937	-0.000162061	8.75774e-06
0.554	2.37836	-0.00015956	8.90894e-06
0.555	2.37735	-0.000155233	9.06236e-06
0.556	2.37635	-0.000155056	9.74752e-06
0.557	2.37536	-0.000149547	9.71008e-06
0.558	2.37433	-0.00023718	1.26457e-06
0.559	2.37334	-0.000164192	8.35608e-06
0.56	2.37235	-0.000165282	8.2696e-06
0.561	2.37137	-0.000163194	8.44675e-06
0.562	2.37039	-0.000181208	6.69048e-06
0.563	2.3694	-0.000164783	8.33095e-06
0.564	2.36847	-0.000145598	1.01348e-05
0.565	2.36748	-0.00016849	7.89944e-06
0.566	2.36653	-0.000160725	8.60662e-06
0.567	2.36557	-0.000165274	8.19741e-06
0.568	2.36463	-7.91263e-05	1.56475e-05
0.569	2.36371	-0.000150962	9.30744e-06
0.57	2.36277	-0.000162634	8.21789e-06
0.571	2.36183	-0.000162503	8.20985e-06
0.572	2.3609	-0.000162269	8.20543e-06
0.573	2.35997	-0.00016216	8.20783e-06
0.574	2.35904	-0.00016238	8.20469e-06
0.575	2.35813	-3.07207e-05	1.89665e-05
0.576	2.35724	-0.000191062	5.40406e-06
0.577	2.35632	-0.000176371	6.88632e-06
0.578	2.35541	-0.000171114	7.20831e-06
0.579	2.3545	-0.000168828	7.44526e-06
0.58	2.35359	-0.000166862	7.5914e-06
0.581	2.35269	-0.000164818	7.77689e-06
0.582	2.3518	-0.000162072	8.02475e-06
0.583	2.35091	-0.000156889	8.53272e-06
0.584	2.35003	-0.000141857	1.0066e-05
0.585	2.34911	-0.000250595	-1.41532e-06
0.586	2.34822	-0.000169962	7.10259e-06
0.587	2.34734	-0.000171361	7.63104e-06
0.588	2.34646	-0.000166171	7.49509e-06
0.589	2.34559	-0.000186575	5.97048e-06
0.59	2.3447	-0.000153105	9.13723e-06
0.591	2.34387	-0.000181502	6.23049e-06
0.592	2.34299	-0.000141519	9.01105e-06
0.593	2.34215	-0.000166772	6.01142e-06
0.594	2.3413	-0.000123758	1.17927e-05
0.595	2.34047	-0.000176544	6.26122e-06
0.596	2.33962	-0.000168747	6.5752e-06
0.597	2.33878	-0.000165027	6.22552e-06
0.598	2.33794	-0.000164413	6.3545e-06
0.599	2.3371	-0.000164587	6.37666e-06
0.6	2.33627	-0.000164923	6.40296e-06
0.601	2.33544	-0.000165303	6.38823e-06
0.602	2.33462	-0.000165769	6.37231e-06
0.603	2.3338	-0.000166202	6.36415e-06
0.604	2.33298	-0.000166804	6.32509e-06
0.605	2.33217	-0.000167366	6.27696e-06
0.606	2.33135	-0.000168036	6.26534e-06
0.607	2.33055	-0.000112381	1.14894e-05
0.608	2.32977	-0.000156803	7.17242e-06
0.609	2.32897	-0.000156053	7.426e-06
0.61	2.32819	-0.000145577	8.49593e-06
0.611	2.32737	-0.000237785	-1.90382e-06
0.612	2.32656	-0.000152016	6.17246e-06
0.613	2.32577	-0.000151111	9.11482e-06
0.614	2.32501	-2.2286e-05	1.85482e-05
0.615	2.32427	-0.00020792	4.24049e-06
0.616	2.32344	-0.000207416	-5.22954e-07
0.617	2.32269	-0.000149035	1.09323e-05
0.618	2.3219	-0.000152922	5.1861e-06
0.619	2.32115	-0.000167995	8.71706e-06
0.62	2.32038	-0.000157623	4.84427e-06
0.621	2.31961	-0.000181501	6.5345e-06
0.622	2.31886	-0.0001584	5.57323e-06
0.623	2.31809	-0.000176591	6.43499e-06
0.624	2.31734	-0.000160927	5.79795e-06
0.625	2.31658	-0.000171744	6.31417e-06
0.626	2.31583	-0.000163902	5.99095e-06
0.627	2.31509	-0.000168834	6.19732e-06
0.628	2.31434	-0.000165575	6.06664e-06
0.629	2.3136	-0.000167321	6.12958e-06
0.63	2.31286	-0.000166076	6.08811e-06
0.631	2.31213	-0.000166599	6.14703e-06
0.632	2.3114	-0.000165959	6.19185e-06
0.633	2.31068	-0.000164964	6.23435e-06
0.634	2.30995	-0.000163713	6.40741e-06
0.635	2.30923	-0.000159633	6.80261e-06
0.636	2.30853	-0.000128932	1.05602e-05
0.637	2.30779	-0.00023621	-2.6825e-06
0.638	2.30705	-0.000168152	5.66846e-06
0.639	2.30634	-0.000169149	5.79936e-06
0.64	2.30562	-0.000168149	5.88553e-06
0.641	2.30493	-0.00015512	7.32328e-06
0.642	2.30419	-0.0001848	3.7739e-06
0.643	2.30352	-0.000154271	7.34698e-06
0.644	2.30279	-0.000164312	6.26472e-06
0.645	2.30211	-0.000164168	6.13655e-06
0.646	2.30143	-0.000110475	1.18964e-05
0.647	2.30075	-0.000158909	6.72023e-06
0.648	2.30006	-0.00016037	6.56084e-06
0.649	2.29938	-0.000162316	6.31122e-06
0.65	2.2987	-0.000163332	6.15812e-06
0.651	2.29802	-0.00016411	6.03866e-06
0.652	2.29734	-0.000163947	5.92465e-06
0.653	2.29671	-7.94949e-05	1.51315e-05
0.654	2.29604	-0.000178112	4.4029e-06
0.655	2.29536	-0.00017551	4.65701e-06
0.656	2.29469	-0.000174484	4.72713e-06
0.657	2.29403	-0.000153207	7.40837e-06
0.658	2.29337	-0.000167704	5.3668e-06
0.659	2.29271	-0.000167895	5.44579e-06
0.66	2.29205	-0.000166601	5.57817e-06
0.661	2.29139	-0.000164116	5.87042e-06
0.662	2.29076	-0.000129873	1.01807e-05
0.663	2.29013	-0.000156931	6.80061e-06
0.664	2.28942	-0.000244973	-4.80196e-06
0.665	2.28877	-0.000174567	4.53488e-06
0.666	2.28812	-0.000172189	4.84681e-06
0.667	2.28747	-0.000171479	4.96781e-06
0.668	2.28681	-0.000235113	-3.33078e-06
0.669	2.28616	-9.62275e-05	1.46414e-05
0.67	2.28553	-0.00022533	-2.23951e-06
0.671	2.28489	-0.000131849	1.00135e-05
0.672	2.28427	-0.000186583	2.80803e-06
0.673	2.28363	-0.00016216	5.99032e-06
0.674	2.28301	-0.000171724	4.70094e-06
0.675	2.28238	-0.000169145	5.00777e-06
0.676	2.28176	-0.000152306	7.18266e-06
0.677	2.28115	-0.000167423	5.15291e-06
0.678	2.28053	-0.000167874	5.04329e-06
0.679	2.27992	-0.000167969	4.98923e-06
0.68	2.2793	-0.000167808	4.96695e-06
0.681	2.27869	-0.000134708	9.24622e-06
0.682	2.2781	-0.000173973	4.0164e-06
0.683	2.27749	-0.000170892	4.35081e-06
0.684	2.27691	-0.000117402	1.04965e-05
0.685	2.27631	-0.000155197	5.95931e-06
0.686	2.27572	-0.000151088	6.20896e-06
0.687	2.27513	-0.000140545	6.94229e-06
0.688	2.27454	-0.000113066	8.93176e-06
0.689	2.27396	-0.000189283	3.98756e-06
0.69	2.27331	-0.000246113	-4.53323e-06
0.691	2.27275	-9.29738e-05	1.43731e-05
0.692	2.27217	-0.000198266	1.92857e-06
0.693	2.27158	-0.000194835	2.51176e-06
0.694	2.27096	-0.000251052	-5.45375e-06
0.695	2.27037	-0.000113365	1.34137e-05
0.696	2.2698	-0.000215772	-1.4852e-06
0.697	2.26923	-0.00014499	8.45354e-06
0.698	2.26865	-0.000189176	2.19057e-06
0.699	2.26807	-0.000169356	4.91076e-06
0.7	2.2675	-0.00019008	4.19313e-06
0.701	2.26695	-0.000163029	5.70275e-06
0.702	2.26637	-0.000181931	3.43011e-06
0.703	2.2658	-0.00017876	3.64421e-06
0.704	2.26523	-0.000177398	3.81413e-06
0.705	2.26466	-0.000175818	3.874e-06
0.706	2.2641	-0.000174914	3.97905e-06
0.707	2.26354	-0.000174634	4.01493e-06
0.708	2.26298	-0.000173965	4.06316e-06
0.709	2.26242	-0.00017333	4.12482e-06
0.71	2.26186	-0.000172554	4.21183e-06
0.711	2.26131	-0.00017148	4.35725e-06
0.712	2.26076	-0.000169705	4.58633e-06
0.713	2.26022	-0.00016604	5.1117e-06
0.714	2.25968	-0.000155407	6.67659e-06
0.715	2.2591	-0.000240736	-5.85858e-06
0.716	2.25853	-0.000176013	3.50596e-06
0.717	2.25799	-0.000160013	5.95299e-06
0.718	2.25745	-0.000173178	4.0994e-06
0.719	2.25691	-0.000246894	-6.79495e-06
0.72	2.25633	-8.55644e-05	1.71438e-05
0.721	2.25583	-0.000251534	-7.42082e-06
0.722	2.2553	-4.14918e-05	2.26227e-05
0.723	2.25481	-0.000200522	-2.99111e-07
0.724	2.25427	-0.000160981	5.76369e-06
0.725	2.25375	-0.000176068	3.48145e-06
0.726	2.25322	-0.000171435	4.13621e-06
0.727	2.2527	-0.000172322	3.98826e-06
0.728	2.25217	-0.000172187	3.9833e-06
0.729	2.25166	-6.69122e-05	1.74119e-05
0.73	2.25119	-0.000199041	7.28667e-07
0.731	2.25066	-0.000184305	2.34994e-06
0.732	2.25013	-0.000180718	2.79343e-06
0.733	2.24961	-0.000178551	3.06584e-06
0.734	2.2491	-0.000177123	3.2288e-06
0.735	2.24858	-0.000176536	3.73451e-06
0.736	2.24806	-0.000174895	3.3856e-06
0.737	2.24756	-0.000152077	5.90667e-06
0.738	2.24707	-0.000157269	4.91983e-06
0.739	2.24658	-0.000166978	4.02215e-06
0.74	2.24602	-0.000219689	-4.75317e-06
0.741	2.24551	-0.00017163	3.57373e-06
0.742	2.24502	-0.000138459	8.97699e-06
0.743	2.24453	-0.000180703	1.45838e-06
0.744	2.244	-0.000230448	-6.15878e-06
0.745	2.2435	-0.000115183	1.21245e-05
0.746	2.243	-0.000216413	-3.93352e-06
0.747	2.24251	-0.000146063	7.50873e-06
0.748	2.24202	-0.000185642	1.27174e-06
0.749	2.24152	-0.000168739	3.96967e-06
0.75	2.24103	-0.000174868	3.03513e-06
0.751	2.24054	-0.000173669	3.25476e-06
0.752	2.24006	-0.000174472	3.17251e-06
0.753	2.23957	-0.000174879	3.13963e-06
0.754	2.23908	-0.000175508	3.06206e-06
0.755	2.2386	-0.000175493	3.10489e-06
0.756	2.23813	-0.000159313	5.70907e-06
0.757	2.23766	-0.000173358	3.65026e-06
0.758	2.23719	-0.000174299	3.54374e-06
0.759	2.23672	-0.000174583	3.51559e-06
0.76	2.23626	-0.000102403	1.41726e-05
0.761	2.23584	-0.000173582	3.5306e-06
0.762	2.23538	-0.000168079	4.47575e-06
0.763	2.23493	-0.000153316	6.78811e-06
0.764	2.23441	-0.000242951	-8.04058e-06
0.765	2.23392	-0.000178977	2.73687e-06
0.766	2.23345	-0.000177349	3.03429e-06
0.767	2.23299	-0.000176895	3.13532e-06
0.768	2.23251	-0.000140235	6.70064e-06
0.769	2.23208	-0.000132128	1.12299e-05
0.77	2.23163	-0.000238523	-6.97205e-06
0.771	2.23115	-0.000148928	7.95068e-06
0.772	2.2307	-0.000184128	2.04037e-06
0.773	2.23024	-0.000173298	3.83156e-06
0.774	2.22979	-0.000181821	2.40066e-06
0.775	2.22933	-0.000179871	2.72705e-06
0.776	2.22887	-0.00018054	2.61533e-06