/*--------------------------------*- C++ -*----------------------------------*\
| =========                 |                                                 |
| \\      /  F ield         | OpenFOAM: The Open Source CFD Toolbox           |
|  \\    /   O peration     | Version:  2.1.0                                 |
|   \\  /    A nd           | Web:      www.OpenFOAM.org                      |
|    \\/     M anipulation  |                                                 |
\*---------------------------------------------------------------------------*/
FoamFile
{
    version     2.0;
    format      ascii;
    class       surfaceScalarField;
    location    "0";
    object      phi;
}
// * * * * * * * * * * * * * * * * * * * * * * * * * * * * * * * * * * * * * //

dimensions      [0 3 -1 0 0 0 0];

internalField   nonuniform List<scalar> 
18090
(
0.0623124
-0.166429
0.0352964
-0.152505
0.0229664
-0.137329
0.0166213
-0.123882
0.012946
-0.11249
0.0105882
-0.102854
0.00894939
-0.0946149
0.0077399
-0.0874725
0.00680679
-0.0812005
0.00606245
-0.0756304
0.00545314
-0.0706362
0.00494403
-0.0661227
0.00451146
-0.0620163
0.00413879
-0.0582593
0.00381393
-0.0548054
0.00352791
-0.0516175
0.00327391
-0.0486647
0.00304665
-0.0459215
0.00284198
-0.0433665
0.00265661
-0.0409813
0.00248786
-0.0387503
0.00233355
-0.0366598
0.0021919
-0.0346982
0.00206139
-0.0328548
0.00194079
-0.0311207
0.00182903
-0.0294875
0.0017252
-0.027948
0.00162855
-0.0264955
0.00153844
-0.0251242
-0.0238287
0.00145438
0.0952261
-0.13353
0.0711724
-0.128452
0.0547517
-0.120908
0.0435523
-0.112683
0.0357236
-0.104661
0.0300653
-0.0971959
0.0258332
-0.0903828
0.0225664
-0.0842057
0.0199741
-0.0786083
0.0178681
-0.0735243
0.0161226
-0.0688907
0.0146512
-0.0646513
0.0133928
-0.060758
0.0123033
-0.0571698
0.01135
-0.0538521
0.010508
-0.0507755
0.0097585
-0.0479152
0.00908653
-0.0452495
0.00848035
-0.0427603
0.00793054
-0.0404315
0.00742943
-0.0382492
0.00697076
-0.0362012
0.00654932
-0.0342767
0.00616078
-0.0324663
0.00580148
-0.0307614
0.00546831
-0.0291543
0.00515864
-0.0276383
0.0048702
-0.0262071
0.004601
-0.024855
-0.023577
0.00434934
0.10723
-0.112635
0.089005
-0.110226
0.0741945
-0.106097
0.0625153
-0.101004
0.0533706
-0.0955164
0.046171
-0.0899964
0.0404352
-0.084647
0.0357982
-0.0795688
0.0319921
-0.0748022
0.0288216
-0.0703538
0.0261441
-0.0662132
0.0238546
-0.0623619
0.021875
-0.0587783
0.020146
-0.0554409
0.0186226
-0.0523287
0.0172697
-0.0494226
0.0160598
-0.0467052
0.0149709
-0.0441607
0.0139855
-0.0417749
0.0130893
-0.0395353
0.0122707
-0.0374305
0.0115199
-0.0354504
0.010829
-0.0335858
0.010191
-0.0318284
0.00960037
-0.0301707
0.00905207
-0.0286061
0.00854194
-0.0271282
0.00806635
-0.0257315
0.00762214
-0.0244108
-0.0231614
0.00720653
0.112924
-0.0974339
0.0987656
-0.0960678
0.0862349
-0.0935666
0.0754871
-0.0902561
0.0664194
-0.0864486
0.0588165
-0.0823936
0.0524394
-0.0782698
0.0470661
-0.0741956
0.0425077
-0.0702438
0.0386096
-0.0664558
0.0352483
-0.0628519
0.0323257
-0.0594393
0.0297644
-0.056217
0.0275029
-0.0531794
0.0254923
-0.0503181
0.0236935
-0.0476238
0.0220748
-0.0450865
0.0206105
-0.0426964
0.0192797
-0.0404441
0.0180648
-0.0383205
0.0169515
-0.0363173
0.0159278
-0.0344267
0.0149833
-0.0326413
0.0141096
-0.0309546
0.0132991
-0.0293603
0.0125456
-0.0278526
0.0118436
-0.0264262
0.0111884
-0.0250763
0.0105757
-0.0237982
-0.0225878
0.010002
0.116153
-0.0854622
0.104678
-0.0845928
0.0940605
-0.0829489
0.0844878
-0.0806835
0.0760051
-0.077966
0.0685648
-0.0749532
0.0620704
-0.0717755
0.0564077
-0.0685329
0.0514622
-0.0652984
0.0471289
-0.0621225
0.0433154
-0.0590384
0.0399429
-0.0560668
0.0369451
-0.0532192
0.0342666
-0.0505009
0.0318615
-0.047913
0.0296915
-0.0454538
0.0277248
-0.0431198
0.0259349
-0.0409065
0.0242996
-0.0388088
0.0228002
-0.0368211
0.0214208
-0.034938
0.0201481
-0.033154
0.0189706
-0.0314638
0.0178784
-0.0298625
0.0168631
-0.028345
0.0159174
-0.0269068
0.0150347
-0.0255436
0.0142096
-0.0242511
0.0134371
-0.0230256
-0.0218634
0.0127128
0.118208
-0.0755455
0.108564
-0.0749487
0.0994157
-0.0738004
0.0909117
-0.0721794
0.0831269
-0.0701812
0.0760767
-0.0679031
0.0697356
-0.0654344
0.0640537
-0.062851
0.0589697
-0.0602144
0.0544193
-0.057572
0.05034
-0.0549592
0.0466744
-0.0524012
0.0433709
-0.0499157
0.0403842
-0.0475142
0.0376748
-0.0452036
0.0352087
-0.0429878
0.0329568
-0.0408679
0.0308938
-0.0388436
0.0289983
-0.0369133
0.0272517
-0.0350745
0.025638
-0.0333243
0.0241434
-0.0316595
0.0227561
-0.0300765
0.0214656
-0.028572
0.0202629
-0.0271423
0.0191399
-0.0257839
0.0180899
-0.0244936
0.0171066
-0.0232679
0.0161845
-0.0221036
-0.0209978
0.0153189
0.119619
-0.0670397
0.111279
-0.0666082
0.103248
-0.0657693
0.0956353
-0.0645671
0.0885121
-0.0630581
0.0819126
-0.0613036
0.0758424
-0.0593641
0.0702864
-0.057295
0.0652161
-0.0551442
0.0605958
-0.0529518
0.0563868
-0.0507501
0.0525499
-0.0485644
0.0490479
-0.0464137
0.0458461
-0.0443124
0.0429129
-0.0422704
0.0402199
-0.0402949
0.0377421
-0.0383901
0.035457
-0.0365585
0.033345
-0.0348013
0.0313889
-0.0331184
0.0295735
-0.0315089
0.0278853
-0.0299713
0.0263127
-0.0285039
0.0248453
-0.0271045
0.0234738
-0.0257708
0.0221903
-0.0245004
0.0209874
-0.0232907
0.0198587
-0.0221392
0.0187985
-0.0210435
-0.020001
0.0178017
0.120639
-0.0595542
0.113262
-0.0592304
0.106089
-0.058597
0.0992025
-0.0576803
0.0926596
-0.0565152
0.0864974
-0.0551415
0.0807337
-0.0536005
0.0753706
-0.0519319
0.0703987
-0.0501722
0.0658004
-0.0483536
0.0615537
-0.0465034
0.0576338
-0.0446445
0.0540153
-0.0427952
0.050673
-0.0409701
0.0475829
-0.0391804
0.0447227
-0.0374347
0.0420717
-0.035739
0.0396109
-0.0340978
0.0373234
-0.0325138
0.0351937
-0.0309887
0.0332081
-0.0295232
0.0313541
-0.0281174
0.0296207
-0.0267706
0.027998
-0.0254818
0.0264771
-0.0242499
0.0250499
-0.0230732
0.0237093
-0.0219501
0.0224489
-0.0208788
0.0212628
-0.0198574
-0.018884
0.0201458
0.121405
-0.0528339
0.114759
-0.0525846
0.108256
-0.0520946
0.101957
-0.0513807
0.0959068
-0.0504652
0.0901402
-0.049375
0.0846781
-0.0481384
0.0795304
-0.0467841
0.0746977
-0.0453396
0.070174
-0.0438299
0.0659481
-0.0422775
0.0620054
-0.0407019
0.0583297
-0.0391195
0.0549036
-0.037544
0.0517097
-0.0359866
0.0487311
-0.034456
0.0459514
-0.0329593
0.0433553
-0.0315017
0.0409285
-0.0300871
0.0386579
-0.0287181
0.0365314
-0.0273967
0.0345379
-0.0261238
0.0326672
-0.0248999
0.0309102
-0.0237249
0.0292586
-0.0225983
0.0277048
-0.0215194
0.0262418
-0.0204871
0.0248634
-0.0195004
0.0235639
-0.0185578
-0.017658
0.0223379
0.121994
-0.0467031
0.115917
-0.0465074
0.109944
-0.0461218
0.104121
-0.0455572
0.0984841
-0.0448286
0.0930634
-0.0439543
0.0878795
-0.0429545
0.0829452
-0.0418498
0.0782665
-0.0406608
0.0738437
-0.0394071
0.0696727
-0.0381065
0.065746
-0.0367753
0.062054
-0.0354274
0.0585853
-0.0340753
0.0553278
-0.0327291
0.0522692
-0.0313974
0.049397
-0.0300872
0.0466993
-0.028804
0.0441645
-0.0275523
0.0417816
-0.0263352
0.0395404
-0.0251554
0.0374311
-0.0240146
0.0354448
-0.0229137
0.0335734
-0.0218534
0.0318091
-0.020834
0.0301449
-0.0198552
0.0285744
-0.0189166
0.0270916
-0.0180176
0.025691
-0.0171573
-0.0163346
0.0243675
0.122457
-0.0410347
0.116829
-0.0408793
0.111279
-0.0405723
0.105843
-0.0401212
0.100551
-0.0395363
0.095427
-0.0388306
0.0904908
-0.0380183
0.0857558
-0.0371147
0.0812302
-0.0361353
0.0769181
-0.035095
0.0728197
-0.0340081
0.0689321
-0.0328877
0.0652503
-0.0317457
0.0617675
-0.0305925
0.0584758
-0.0294374
0.0553664
-0.028288
0.0524303
-0.0271511
0.0496584
-0.0260321
0.0470414
-0.0249353
0.0445706
-0.0238644
0.0422373
-0.0228222
0.0400334
-0.0218107
0.0379512
-0.0208315
0.0359833
-0.0198855
0.0341229
-0.0189736
0.0323636
-0.0180959
0.0306996
-0.0172526
0.0291253
-0.0164433
0.0276356
-0.0156676
-0.0149248
0.0262258
0.122824
-0.0357338
0.117554
-0.0356095
0.112345
-0.0353636
0.107226
-0.0350013
0.102219
-0.0345299
0.0973472
-0.0339586
0.0926268
-0.0332979
0.0880711
-0.032559
0.0836893
-0.0317536
0.0794874
-0.0308931
0.0754682
-0.0299888
0.0716318
-0.0290513
0.0679763
-0.0280902
0.0644982
-0.0271145
0.0611927
-0.0261319
0.058054
-0.0251493
0.0550757
-0.0241728
0.052251
-0.0232073
0.0495729
-0.0222572
0.0470344
-0.0213259
0.0446284
-0.0204162
0.0423482
-0.0195305
0.0401872
-0.0186704
0.038139
-0.0178373
0.0361976
-0.0170322
0.0343573
-0.0162557
0.0326127
-0.0155081
0.030959
-0.0147896
0.0293915
-0.0141
-0.0134391
0.0279059
0.123118
-0.0307267
0.118135
-0.0306272
0.113202
-0.0304301
0.10834
-0.0301391
0.10357
-0.0297596
0.098909
-0.0292981
0.0943734
-0.0287623
0.0899751
-0.0281606
0.0857234
-0.0275018
0.0816251
-0.0267948
0.0776844
-0.0260482
0.0739036
-0.0252705
0.0702829
-0.0244695
0.066821
-0.0236526
0.0635153
-0.0228262
0.0603624
-0.0219964
0.0573579
-0.0211683
0.054497
-0.0203464
0.0517744
-0.0195346
0.0491847
-0.0187362
0.0467222
-0.0179538
0.0443813
-0.0171896
0.0421565
-0.0164456
0.0400423
-0.0157231
0.0380333
-0.0150232
0.0361245
-0.0143469
0.0343112
-0.0136948
0.032589
-0.0130674
0.0309539
-0.012465
-0.0118874
0.0294022
0.123353
-0.0259547
0.118601
-0.0258755
0.11389
-0.0257185
0.109237
-0.0254864
0.10466
-0.025183
0.100176
-0.0248132
0.0957958
-0.0243825
0.0915324
-0.0238973
0.0873948
-0.0233642
0.0833899
-0.0227899
0.0795229
-0.0221812
0.075797
-0.0215447
0.0722141
-0.0208866
0.0687744
-0.0202128
0.065477
-0.0195288
0.06232
-0.0188394
0.0593008
-0.0181491
0.056416
-0.0174617
0.0536619
-0.0167805
0.0510342
-0.0161085
0.0485285
-0.0154481
0.0461402
-0.0148013
0.0438645
-0.0141699
0.0416967
-0.0135552
0.039632
-0.0129585
0.037666
-0.0123809
0.0357943
-0.0118232
0.0340132
-0.0112863
0.0323192
-0.010771
-0.0102778
0.0307097
0.12354
-0.0213698
0.118972
-0.0213078
0.114438
-0.0211846
0.109954
-0.0210022
0.105535
-0.0207635
0.101194
-0.0204719
0.0969427
-0.0201317
0.0927927
-0.0197473
0.0887524
-0.0193238
0.0848288
-0.0188663
0.0810276
-0.01838
0.0773527
-0.0178698
0.0738068
-0.0173407
0.0703913
-0.0167974
0.0671066
-0.016244
0.0639519
-0.0156847
0.0609258
-0.015123
0.0580262
-0.0145621
0.0552505
-0.0140047
0.0525954
-0.0134534
0.0500575
-0.0129101
0.0476328
-0.0123766
0.0453175
-0.0118545
0.0431071
-0.0113449
0.0409975
-0.0108489
0.0389843
-0.0103677
0.0370635
-0.00990229
0.0352313
-0.0094541
0.033485
-0.00902476
-0.0086161
0.0318233
0.123687
-0.0169317
0.119264
-0.0168844
0.114869
-0.0167905
0.110519
-0.0166513
0.106224
-0.0164689
0.101998
-0.0162458
0.0978513
-0.015985
0.0937938
-0.0156898
0.0898339
-0.0153639
0.0859785
-0.015011
0.0822336
-0.014635
0.0786034
-0.0142396
0.0750912
-0.0138286
0.0716993
-0.0134054
0.0684287
-0.0129734
0.0652797
-0.0125358
0.0622518
-0.0120951
0.0593438
-0.0116541
0.0565539
-0.0112148
0.0538797
-0.0107792
0.0513185
-0.0103489
0.0488672
-0.00992526
0.0465221
-0.00950942
0.0442795
-0.00910226
0.0421351
-0.00870454
0.0400845
-0.00831703
0.0381229
-0.00794075
0.0362462
-0.00757735
0.0344511
-0.00722964
-0.00690215
0.0327372
0.123799
-0.0126055
0.119486
-0.0125713
0.115198
-0.0125034
0.11095
-0.0124027
0.106751
-0.0122706
0.102614
-0.0121089
0.0985491
-0.0119196
0.0945642
-0.011705
0.0906681
-0.0114677
0.0868675
-0.0112104
0.0831682
-0.0109357
0.079575
-0.0106464
0.0760915
-0.0103451
0.0727204
-0.0100342
0.0694634
-0.00971639
0.0663213
-0.0093937
0.0632944
-0.00906824
0.0603822
-0.00874184
0.0575836
-0.0084161
0.0548969
-0.00809241
0.0523199
-0.00777192
0.0498502
-0.00745552
0.0474846
-0.00714386
0.0452197
-0.0068373
0.0430512
-0.00653597
0.040974
-0.00623982
0.038982
-0.0059488
0.0370682
-0.00566354
0.0352252
-0.00538668
-0.00512578
0.0334489
0.12388
-0.00836002
0.119646
-0.00833781
0.115436
-0.00829369
0.111262
-0.00822825
0.107134
-0.00814235
0.103062
-0.00803709
0.0990562
-0.00791377
0.0951251
-0.00777388
0.0912764
-0.00761901
0.0875168
-0.00745085
0.0838522
-0.00727113
0.0802874
-0.00708158
0.0768263
-0.00688392
0.0734718
-0.00667978
0.0702262
-0.00647073
0.0670907
-0.00625822
0.064066
-0.00604359
0.0611522
-0.00582802
0.0583487
-0.00561256
0.0556545
-0.00539809
0.0530678
-0.00518528
0.0505869
-0.00497461
0.0482093
-0.00476625
0.045932
-0.00456001
0.0437513
-0.00435521
0.0416619
-0.00415044
0.0396563
-0.00394322
0.0377226
-0.00372986
0.035842
-0.00350599
-0.00327058
0.0339867
0.123932
-0.00416708
0.11975
-0.00415615
0.115591
-0.00413443
0.111465
-0.00410219
0.107383
-0.00405987
0.103354
-0.00400799
0.0993869
-0.00394718
0.0954912
-0.00387815
0.0916739
-0.00380169
0.0879416
-0.0037186
0.0843003
-0.00362974
0.0807547
-0.00353596
0.0773088
-0.00343808
0.073966
-0.00333692
0.0707285
-0.00323324
0.067598
-0.00312776
0.0645756
-0.00302114
0.0616616
-0.00291395
0.0588558
-0.00280671
0.0561575
-0.00269983
0.0535658
-0.00259361
0.0510795
-0.00248821
0.0486968
-0.00238357
0.0464161
-0.00227931
0.0442353
-0.00217443
0.0421517
-0.00206685
0.0401607
-0.00195216
0.0382518
-0.001821
0.0363985
-0.00165265
-0.00139937
0.0345272
0.123958
4.39827e-10
0.119802
2.15995e-10
0.115667
2.87397e-10
0.111565
5.27947e-10
0.107505
5.52542e-10
0.103497
-4.81767e-11
0.0995501
-1.40164e-09
0.0956719
-3.10942e-09
0.0918703
-4.31209e-09
0.0881517
-4.1835e-09
0.084522
-2.63392e-09
0.080986
-6.42224e-10
0.077548
3.03427e-10
0.0742111
-5.14036e-10
0.0709778
-2.10189e-09
0.0678501
-2.37123e-09
0.064829
-2.83179e-10
0.0619151
2.40498e-09
0.0591084
2.29653e-09
0.0564086
-1.57628e-09
0.053815
-5.17326e-09
0.0513268
-3.71752e-09
0.0489433
-1.98252e-10
0.046664
-4.23957e-09
0.0444896
-1.50473e-08
0.0424228
-1.74898e-08
0.0404707
-1.66988e-08
0.0386498
-3.05509e-08
0.0369972
-3.31493e-08
0.0355979
-4.47101e-08
0.00137295
-0.00339945
0.00133698
-0.00341754
0.00132088
-0.00341021
0.00129976
-0.0033782
0.00128172
-0.00335454
0.00126732
-0.00333164
0.00125379
-0.00330619
0.00124074
-0.00328056
0.00122929
-0.00325628
0.00121819
-0.00323096
0.00120736
-0.00320576
0.0011972
-0.00318118
0.00118757
-0.00315666
0.00117814
-0.00313203
0.0011689
-0.00310758
0.00116021
-0.00308371
0.00115169
-0.00305965
0.00114332
-0.00303577
0.00113519
-0.00301218
0.00112733
-0.00298881
0.0011196
-0.00296549
0.00111199
-0.00294236
0.00110462
-0.00291954
0.00109738
-0.00289679
0.00109025
-0.00287421
0.00108324
-0.00285183
0.00107641
-0.00282968
0.00106967
-0.00280763
0.00106301
-0.00278576
0.00105649
-0.0027641
0.00105008
-0.0027426
0.00104374
-0.00272125
0.00103749
-0.00270008
0.00103135
-0.0026791
0.00102529
-0.00265826
0.0010193
-0.00263758
0.00101847
-0.00262215
0.00103306
-0.00261712
0.00103576
-0.00258494
-0.0025227
0.00099627
0.00423425
-0.00328436
0.00415922
-0.00334251
0.00410332
-0.00335432
0.0040461
-0.003321
0.00399658
-0.00330502
0.00395403
-0.00328909
0.00391405
-0.00326622
0.00387457
-0.00324108
0.00383698
-0.0032187
0.00380048
-0.00319447
0.0037648
-0.00317008
0.0037302
-0.00314659
0.00369664
-0.00312312
0.00366375
-0.00309916
0.00363145
-0.00307529
0.00360008
-0.00305236
0.00356929
-0.00302887
0.00353901
-0.00300551
0.0035093
-0.00298248
0.0034802
-0.00295973
0.00345157
-0.00293687
0.00342336
-0.00291416
0.00339569
-0.00289188
0.00336846
-0.00286957
0.00334162
-0.00284738
0.00331518
-0.0028254
0.00328918
-0.00280369
0.00326354
-0.00278201
0.00323825
-0.00276048
0.00321334
-0.00273921
0.00318879
-0.00271806
0.00316456
-0.00269703
0.00314065
-0.00267618
0.00311708
-0.00265554
0.00309382
-0.00263501
0.00307085
-0.00261463
0.00305317
-0.00260448
0.00305081
-0.00261477
0.00303696
-0.00257109
-0.00246768
0.00298192
0.00705987
-0.00313767
0.0069469
-0.00322952
0.00685191
-0.00325932
0.00675939
-0.00322846
0.00667905
-0.00322466
0.00660889
-0.00321892
0.00654297
-0.00320029
0.00647757
-0.00317565
0.00641431
-0.00315543
0.00635285
-0.00313299
0.00629274
-0.00310996
0.00623412
-0.00308795
0.00617703
-0.00306601
0.00612108
-0.00304319
0.00606609
-0.00302028
0.00601241
-0.00299865
0.00595969
-0.00297613
0.00590784
-0.00295364
0.00585688
-0.0029315
0.00580687
-0.00290969
0.00575765
-0.00288762
0.00570915
-0.00286564
0.00566147
-0.00284418
0.00561453
-0.00282261
0.00556826
-0.00280109
0.00552265
-0.00277978
0.00547775
-0.00275877
0.00543348
-0.00273771
0.0053898
-0.00271679
0.00534675
-0.00269614
0.00530429
-0.00267559
0.0052624
-0.00265513
0.00522106
-0.00263482
0.00518028
-0.00261475
0.00514004
-0.00259475
0.00510031
-0.00257489
0.00506589
-0.00257006
0.00504645
-0.00259532
0.00501616
-0.00254079
-0.00239796
0.00494645
0.00982617
-0.00296192
0.00967699
-0.00308036
0.00954425
-0.0031266
0.00941773
-0.00310196
0.00930765
-0.00311461
0.00921079
-0.00312208
0.00911977
-0.00310929
0.00902926
-0.00308516
0.0089411
-0.00306729
0.00885543
-0.00304734
0.00877163
-0.00302617
0.00868967
-0.00300601
0.00860972
-0.00298607
0.00853134
-0.00296483
0.0084543
-0.00294326
0.00837889
-0.00292327
0.00830484
-0.00290209
0.00823199
-0.0028808
0.00816034
-0.00285986
0.00808995
-0.00283932
0.00802066
-0.00281834
0.00795238
-0.00279737
0.0078852
-0.00277701
0.00781903
-0.00275646
0.00775381
-0.00273588
0.0076895
-0.00271548
0.00762616
-0.00269544
0.00756369
-0.00267526
0.00750206
-0.00265517
0.00744128
-0.00263538
0.00738134
-0.00261566
0.00732219
-0.00259599
0.0072638
-0.00257645
0.00720621
-0.00255717
0.00714936
-0.00253791
0.00709324
-0.00251878
0.00704236
-0.00251919
0.00700581
-0.00255879
0.00695928
-0.00249426
-0.00231452
0.00687583
0.0125108
-0.00275986
0.0123276
-0.00289715
0.012159
-0.00295792
0.0120002
-0.00294315
0.0118619
-0.00297624
0.0117396
-0.00299975
0.0116246
-0.00299428
0.0115101
-0.00297063
0.0113981
-0.00295529
0.0112893
-0.00293846
0.0111828
-0.00291963
0.0110784
-0.00290166
0.0109765
-0.00288414
0.0108766
-0.00286489
0.0107784
-0.002845
0.0106821
-0.00282696
0.0105875
-0.00280748
0.0104945
-0.00278773
0.0104029
-0.00276826
0.0103129
-0.00274927
0.0102243
-0.00272968
0.0101369
-0.00271
0.0100509
-0.00269099
0.00996623
-0.00267171
0.00988271
-0.00265234
0.00980035
-0.0026331
0.00971919
-0.00261425
0.00963915
-0.00259518
0.00956017
-0.00257617
0.00948226
-0.00255745
0.00940541
-0.00253878
0.00932957
-0.00252012
0.0092547
-0.00250156
0.00918083
-0.00248327
0.00910791
-0.00246497
0.00903591
-0.00244676
0.00896899
-0.00245224
0.0089155
-0.00250528
0.00885307
-0.00243182
-0.00221838
0.00875694
0.0150937
-0.00253467
0.0148791
-0.00268254
0.0146767
-0.00275562
0.0144878
-0.00275424
0.014323
-0.00281142
0.0141767
-0.00285352
0.0140392
-0.00285674
0.0139021
-0.00283355
0.0137676
-0.00282083
0.0136368
-0.00280771
0.0135088
-0.00279167
0.0133833
-0.00277617
0.0132606
-0.00276148
0.0131403
-0.00274458
0.0130219
-0.00272669
0.0129058
-0.00271088
0.0127917
-0.00269342
0.0126794
-0.0026755
0.0125689
-0.00265776
0.0124602
-0.0026406
0.0123532
-0.00262267
0.0122476
-0.00260452
0.0121437
-0.00258709
0.0120413
-0.00256934
0.0119403
-0.0025514
0.0118407
-0.00253353
0.0117425
-0.0025161
0.0116457
-0.00249837
0.0115501
-0.00248063
0.0114558
-0.00246318
0.0113628
-0.00244577
0.0112709
-0.00242832
0.0111803
-0.00241093
0.0110908
-0.00239382
0.0110025
-0.00237666
0.0109152
-0.00235957
0.0108328
-0.00236985
0.0107627
-0.00243516
0.0106848
-0.00235399
-0.00211073
0.0105772
0.0175566
-0.00228954
0.0173134
-0.00243936
0.01708
-0.00252223
0.0168633
-0.00253755
0.016674
-0.0026221
0.0165055
-0.00268502
0.0163469
-0.00269818
0.0161888
-0.00267539
0.0160333
-0.00266535
0.0158821
-0.00265647
0.015734
-0.0026436
0.0155887
-0.00263082
0.0154465
-0.00261929
0.0153071
-0.00260509
0.0151699
-0.00258948
0.0150351
-0.00257612
0.0149027
-0.00256099
0.0147724
-0.00254515
0.014644
-0.00252938
0.0145177
-0.00251427
0.0143933
-0.00249824
0.0142707
-0.00248186
0.0141498
-0.00246622
0.0140307
-0.00245021
0.0139133
-0.00243391
0.0137974
-0.00241763
0.0136831
-0.0024018
0.0135704
-0.0023856
0.0134591
-0.00236934
0.0133493
-0.00235335
0.0132409
-0.00233739
0.0131339
-0.00232132
0.0130283
-0.00230529
0.012924
-0.00228953
0.0128211
-0.00227369
0.0127194
-0.00225788
0.0126222
-0.00227261
0.0125358
-0.00234879
0.0124431
-0.00226131
-0.00199273
0.0123251
0.0198841
-0.00202782
0.0196155
-0.00217074
0.0193538
-0.00226062
0.019112
-0.00229573
0.0189004
-0.00241052
0.0187116
-0.0024962
0.0185337
-0.00252036
0.0183563
-0.00249792
0.0181815
-0.00249058
0.0180114
-0.00248638
0.0178448
-0.00247704
0.0176811
-0.00246718
0.0175209
-0.0024591
0.0173637
-0.00244789
0.017209
-0.00243482
0.017057
-0.00242412
0.0169076
-0.00241156
0.0167605
-0.00239805
0.0166155
-0.00238444
0.0164728
-0.0023716
0.0163322
-0.00235768
0.0161936
-0.00234327
0.016057
-0.00232958
0.0159223
-0.00231552
0.0157894
-0.00230105
0.0156583
-0.00228652
0.0155289
-0.00227248
0.0154013
-0.00225799
0.0152753
-0.00224337
0.015151
-0.002229
0.0150282
-0.00221465
0.014907
-0.00220014
0.0147874
-0.00218562
0.0146692
-0.00217137
0.0145525
-0.00215699
0.0144372
-0.00214262
0.014326
-0.00216136
0.014224
-0.00224678
0.0141172
-0.00215454
-0.00186566
0.0139901
0.022063
-0.00175283
0.0217721
-0.00187987
0.0214853
-0.00197379
0.0212211
-0.0020315
0.0209895
-0.00217894
0.0207823
-0.00228896
0.0205871
-0.00232507
0.0203921
-0.00230289
0.0201997
-0.00229821
0.0200124
-0.0022991
0.019829
-0.00229356
0.0196486
-0.00228679
0.019472
-0.0022824
0.0192985
-0.00227444
0.0191278
-0.00226411
0.01896
-0.00225622
0.0187949
-0.00224646
0.0186323
-0.00223547
0.0184721
-0.0022242
0.0183143
-0.0022138
0.0181589
-0.00220219
0.0180055
-0.00218991
0.0178543
-0.00217834
0.0177052
-0.00216639
0.0175581
-0.00215392
0.0174129
-0.00214129
0.0172696
-0.00212918
0.0171282
-0.00211657
0.0169886
-0.00210374
0.0168507
-0.00209113
0.0167146
-0.00207854
0.0165802
-0.00206573
0.0164475
-0.00205285
0.0163164
-0.00204025
0.0161869
-0.00202748
0.016059
-0.00201469
0.0159345
-0.00203692
0.0158175
-0.00212976
0.0156974
-0.00203441
-0.00173078
0.0155625
0.0240826
-0.00146788
0.0237728
-0.00157008
0.0234639
-0.00166491
0.0231801
-0.00174775
0.022931
-0.00192979
0.0227074
-0.00206542
0.0224966
-0.00211421
0.0222859
-0.00209224
0.0220778
-0.00209013
0.0218751
-0.00209642
0.0216765
-0.00209494
0.0214811
-0.00209136
0.0212895
-0.00209086
0.0211015
-0.00208636
0.0209163
-0.00207895
0.0207341
-0.002074
0.0205548
-0.00206722
0.0203783
-0.00205892
0.0202042
-0.00205012
0.0200327
-0.00204231
0.0198636
-0.00203315
0.0196969
-0.00202316
0.0195324
-0.00201383
0.0193701
-0.00200413
0.01921
-0.0019938
0.0190519
-0.00198321
0.0188958
-0.00197316
0.0187418
-0.00196255
0.0185897
-0.00195164
0.0184394
-0.00194091
0.0182911
-0.0019302
0.0181445
-0.00191921
0.0179998
-0.00190811
0.0178568
-0.00189726
0.0177155
-0.00188622
0.0175759
-0.00187512
0.0174392
-0.00190026
0.017308
-0.00199851
0.0171754
-0.00190183
-0.00158936
0.017034
0.0259341
-0.00117611
0.0256086
-0.00124464
0.0252808
-0.00133714
0.0249804
-0.00144733
0.0247161
-0.00166546
0.0244782
-0.00182757
0.0242537
-0.00188966
0.0240292
-0.00186781
0.0238072
-0.00186815
0.0235909
-0.0018801
0.0233788
-0.00188286
0.02317
-0.00188256
0.0229653
-0.00188609
0.0227641
-0.00188521
0.022566
-0.00188086
0.0223709
-0.00187893
0.022179
-0.00187529
0.0219899
-0.00186982
0.0218034
-0.0018636
0.0216196
-0.00185849
0.0214383
-0.00185192
0.0212595
-0.00184432
0.021083
-0.00183733
0.0209089
-0.00183001
0.020737
-0.00182193
0.0205673
-0.00181349
0.0203997
-0.00180559
0.0202343
-0.00179709
0.0200709
-0.00178821
0.0199094
-0.00177946
0.01975
-0.00177073
0.0195924
-0.00176167
0.0194367
-0.00175243
0.0192829
-0.00174343
0.0191309
-0.00173423
0.0189807
-0.00172491
0.0188328
-0.00175231
0.0186881
-0.00185382
0.018544
-0.00175766
-0.00144265
0.0183973
0.0276103
-0.000880576
0.0272725
-0.000906811
0.026929
-0.000993666
0.0266148
-0.00113309
0.0263377
-0.00138832
0.0260876
-0.00157747
0.0258512
-0.00165328
0.0256149
-0.00163147
0.0253808
-0.00163413
0.0251527
-0.00165193
0.0249289
-0.00165907
0.0247084
-0.00166209
0.0244921
-0.00166974
0.0242795
-0.00167262
0.02407
-0.00167145
0.0238637
-0.00167258
0.0236606
-0.00167219
0.0234604
-0.00166967
0.0232629
-0.00166611
0.0230682
-0.00166378
0.0228762
-0.0016599
0.0226867
-0.0016548
0.0224996
-0.00165022
0.022315
-0.00164537
0.0221327
-0.00163964
0.0219526
-0.00163342
0.0217748
-0.00162776
0.0215992
-0.00162146
0.0214257
-0.0016147
0.0212542
-0.001608
0.0210849
-0.00160133
0.0209175
-0.00159428
0.020752
-0.00158699
0.0205885
-0.00157992
0.0204269
-0.00157263
0.0202672
-0.00156517
0.020109
-0.00159413
0.0199518
-0.00169664
0.019797
-0.00160291
-0.0012919
0.0196462
0.0291057
-0.000584164
0.0287587
-0.000559796
0.0284027
-0.000637671
0.0280775
-0.000807888
0.0277899
-0.00110074
0.0275296
-0.00131712
0.0272832
-0.00140691
0.0270368
-0.0013851
0.0267926
-0.00138989
0.0265543
-0.00141368
0.0263206
-0.00142531
0.0260901
-0.00143166
0.0258639
-0.00144348
0.0256415
-0.00145022
0.0254223
-0.0014523
0.0252063
-0.00145654
0.0249936
-0.00145949
0.0247839
-0.00145998
0.0245769
-0.00145915
0.0243728
-0.00145966
0.0241715
-0.00145855
0.0239727
-0.00145603
0.0237764
-0.00145391
0.0235827
-0.0014516
0.0233913
-0.00144828
0.0232023
-0.00144435
0.0230155
-0.00144099
0.022831
-0.00143696
0.0226487
-0.00143237
0.0224685
-0.00142778
0.0222904
-0.00142324
0.0221143
-0.00141825
0.0219403
-0.00141296
0.0217683
-0.00140787
0.0215982
-0.00140254
0.02143
-0.001397
0.0212627
-0.00142675
0.0210939
-0.00152788
0.0209295
-0.00143854
-0.00113829
0.0207759
0.0304151
-0.000289549
0.030062
-0.000206666
0.0296966
-0.000272236
0.0293631
-0.000474455
0.0290674
-0.000804974
0.0287987
-0.00104842
0.0285441
-0.0011523
0.0282895
-0.00113046
0.0280368
-0.00113722
0.0277902
-0.00116707
0.0275482
-0.00118327
0.0273095
-0.00119294
0.027075
-0.00120898
0.0268445
-0.00121965
0.0266173
-0.00122507
0.0263932
-0.00123241
0.0261725
-0.00123878
0.0259549
-0.00124237
0.0257401
-0.00124432
0.0255281
-0.00124772
0.025319
-0.00124944
0.0251125
-0.00124956
0.0249086
-0.00124995
0.0247072
-0.00125022
0.0245083
-0.00124938
0.0243117
-0.00124779
0.0241174
-0.00124675
0.0239255
-0.00124503
0.0237358
-0.00124266
0.0235482
-0.00124021
0.0233628
-0.00123781
0.0231794
-0.00123492
0.0229981
-0.00123166
0.0228188
-0.00122857
0.0226415
-0.00122522
0.0224661
-0.00122162
0.0222908
-0.00125137
0.0221115
-0.00134865
0.0219386
-0.00126564
-0.00098301
0.0217834
0.031533
8.23514e-07
0.0311766
0.000149658
0.0308048
9.9654e-05
0.0304657
-0.000135433
0.0301639
-0.000503138
0.0298886
-0.000773132
0.0296274
-0.000891069
0.0293662
-0.000869246
0.0291068
-0.000877828
0.0288535
-0.000913812
0.0286049
-0.000934668
0.0283597
-0.000947674
0.0281187
-0.000967967
0.0278817
-0.000982667
0.0276482
-0.00099151
0.0274177
-0.00100198
0.0271908
-0.00101186
0.0269671
-0.00101864
0.0267462
-0.00102344
0.0265282
-0.00102979
0.0263132
-0.00103442
0.0261009
-0.00103724
0.0258911
-0.00104017
0.025684
-0.00104308
0.0254794
-0.00104476
0.0252771
-0.00104553
0.0250772
-0.00104684
0.0248796
-0.00104745
0.0246843
-0.00104731
0.0244911
-0.00104698
0.0243
-0.00104673
0.024111
-0.00104592
0.0239241
-0.00104467
0.023739
-0.00104354
0.0235559
-0.00104213
0.0233747
-0.00104043
0.0231927
-0.0010693
0.0230042
-0.00116018
0.022824
-0.00108538
-0.000827216
0.0226682
0.0324528
0.000285134
0.0320956
0.000506906
0.0317196
0.000475627
0.0313771
0.000207109
0.0310707
-0.000196757
0.03079
-0.000492409
0.0305232
-0.000624253
0.0302566
-0.00060264
0.0299918
-0.00061302
0.0297333
-0.000655257
0.0294795
-0.000680938
0.0292292
-0.000697413
0.0289833
-0.0007221
0.0287417
-0.000741026
0.0285037
-0.000753511
0.028269
-0.000767271
0.0280379
-0.000780862
0.0278103
-0.00079103
0.0275858
-0.000798861
0.0273643
-0.000808319
0.0271459
-0.000816028
0.0269304
-0.000821719
0.0267176
-0.000827297
0.0265074
-0.000832961
0.0262999
-0.000837239
0.0260949
-0.000840437
0.0258922
-0.000844113
0.0256918
-0.000847059
0.0254936
-0.00084912
0.0252975
-0.000850867
0.0251034
-0.000852671
0.0249114
-0.000853834
0.0247211
-0.000854442
0.0245327
-0.000855106
0.024346
-0.000855467
0.024161
-0.00085545
0.0239741
-0.000882423
0.0237781
-0.000964218
0.023592
-0.000899241
-0.000672144
0.0234369
0.0331706
0.000563381
0.0328123
0.000865154
0.0324323
0.000855677
0.0320862
0.000553217
0.0317747
0.000114745
0.0314876
-0.000205287
0.0312142
-0.00035083
0.0309415
-0.000329931
0.0306708
-0.000342365
0.0304068
-0.000391214
0.030148
-0.000422197
0.0298932
-0.000442634
0.0296433
-0.000472222
0.0293983
-0.000495978
0.0291575
-0.00051276
0.0289207
-0.000530416
0.0286882
-0.00054838
0.0284598
-0.000562609
0.028235
-0.000574124
0.028014
-0.000587302
0.0277967
-0.000598681
0.0275827
-0.000607783
0.0273719
-0.000616491
0.0271643
-0.000625314
0.0269596
-0.000632534
0.0267575
-0.000638406
0.026558
-0.000644597
0.0263609
-0.000649933
0.026166
-0.000654151
0.0259729
-0.000657813
0.0257817
-0.000661417
0.025592
-0.000664194
0.0254038
-0.000666215
0.0252169
-0.000668127
0.025031
-0.000669626
0.0248462
-0.000670601
0.024658
-0.000694199
0.0244575
-0.000763782
0.0242677
-0.000709382
-0.000519149
0.0241146
0.0337085
0.000841673
0.0333402
0.00123346
0.0329467
0.00124914
0.0325889
0.00091104
0.032264
0.000439603
0.0319619
9.68161e-05
0.0316732
-6.21447e-05
0.0313862
-4.28887e-05
0.031102
-5.8145e-05
0.0308254
-0.000114542
0.0305553
-0.000152094
0.0302907
-0.000177982
0.0300325
-0.000214068
0.0297811
-0.000244525
0.029536
-0.000267703
0.029297
-0.00029142
0.0290647
-0.000316057
0.0288389
-0.000336746
0.0286192
-0.000354392
0.0284056
-0.000373682
0.028198
-0.000391084
0.0279961
-0.000405853
0.0277994
-0.000419776
0.0276077
-0.000433626
0.0274206
-0.000445403
0.0272375
-0.00045527
0.0270578
-0.000464946
0.0268811
-0.000473269
0.0267068
-0.000479846
0.0265342
-0.00048521
0.0263628
-0.000489978
0.0261919
-0.00049332
0.026021
-0.000495305
0.0258495
-0.000496639
0.025677
-0.000497113
0.0255031
-0.000496623
0.0253226
-0.000513702
0.0251251
-0.000566271
0.0249359
-0.000520082
-0.000369854
0.0247866
0.0342262
0.00114284
0.0338094
0.00165014
0.0333612
0.00169731
0.0329572
0.00131509
0.0325875
0.000809319
0.0322382
0.000446042
0.0319004
0.000275751
0.0315634
0.00029411
0.0312292
0.000276056
0.0309035
0.000211061
0.0305867
0.000164749
0.0302785
0.000130148
0.029981
8.34561e-05
0.0296955
4.10057e-05
0.0294228
4.99339e-06
0.0291634
-3.19991e-05
0.0289187
-7.13508e-05
0.0286893
-0.00010732
0.0284754
-0.000140522
0.0282774
-0.000175607
0.0280952
-0.000208895
0.0279285
-0.000239184
0.0277766
-0.00026789
0.0276387
-0.000295719
0.0275135
-0.000320235
0.0273995
-0.000341254
0.0272948