/*--------------------------------*- C++ -*----------------------------------*\
| =========                 |                                                 |
| \\      /  F ield         | OpenFOAM: The Open Source CFD Toolbox           |
|  \\    /   O peration     | Version:  2.1.0                                 |
|   \\  /    A nd           | Web:      www.OpenFOAM.org                      |
|    \\/     M anipulation  |                                                 |
\*---------------------------------------------------------------------------*/
FoamFile
{
    version     2.0;
    format      ascii;
    class       volVectorField;
    location    "0";
    object      U;
}
// * * * * * * * * * * * * * * * * * * * * * * * * * * * * * * * * * * * * * //

dimensions      [0 1 -1 0 0 0 0];

internalField   nonuniform List<vector> 
9200
(
(0.74317 -2.39202 0)
(0.380912 -1.99216 0)
(0.227367 -1.72192 0)
(0.154488 -1.52466 0)
(0.115384 -1.37193 0)
(0.091841 -1.2484 0)
(0.0762445 -1.14521 0)
(0.065129 -1.05693 0)
(0.0567676 -0.980005 0)
(0.0502214 -0.91203 0)
(0.0449389 -0.85129 0)
(0.0405744 -0.796527 0)
(0.0368995 -0.746791 0)
(0.0337571 -0.701347 0)
(0.031035 -0.659614 0)
(0.0286511 -0.621126 0)
(0.0265437 -0.5855 0)
(0.0246656 -0.552422 0)
(0.02298 -0.521626 0)
(0.0214579 -0.492888 0)
(0.020076 -0.466016 0)
(0.0188153 -0.440844 0)
(0.0176603 -0.417228 0)
(0.0165982 -0.395041 0)
(0.0156183 -0.374172 0)
(0.0147115 -0.354521 0)
(0.0138702 -0.335999 0)
(0.0130878 -0.318526 0)
(0.012359 -0.302031 0)
(0.0116793 -0.286448 0)
(0.871614 -1.79975 0)
(0.64936 -1.68574 0)
(0.491411 -1.54942 0)
(0.383626 -1.41939 0)
(0.309369 -1.30291 0)
(0.256737 -1.2003 0)
(0.218141 -1.10999 0)
(0.188876 -1.03007 0)
(0.166012 -0.958853 0)
(0.147677 -0.894928 0)
(0.132647 -0.837161 0)
(0.120093 -0.784644 0)
(0.10944 -0.736646 0)
(0.100278 -0.692574 0)
(0.0923055 -0.651945 0)
(0.0852995 -0.614358 0)
(0.0790889 -0.579479 0)
(0.0735416 -0.547026 0)
(0.0685537 -0.516761 0)
(0.0640425 -0.488477 0)
(0.0599414 -0.461996 0)
(0.0561959 -0.437166 0)
(0.0527613 -0.413849 0)
(0.0496004 -0.391927 0)
(0.046682 -0.371292 0)
(0.0439797 -0.351851 0)
(0.0414711 -0.333518 0)
(0.0391369 -0.316216 0)
(0.0369608 -0.299875 0)
(0.0349282 -0.284434 0)
(0.91846 -1.47699 0)
(0.765796 -1.43207 0)
(0.636876 -1.36203 0)
(0.533502 -1.28212 0)
(0.452238 -1.20107 0)
(0.388455 -1.12315 0)
(0.337975 -1.05018 0)
(0.297496 -0.982647 0)
(0.264548 -0.920463 0)
(0.237322 -0.863269 0)
(0.2145 -0.810623 0)
(0.195117 -0.762079 0)
(0.178457 -0.717218 0)
(0.163984 -0.675664 0)
(0.151292 -0.637085 0)
(0.140068 -0.601189 0)
(0.130066 -0.567722 0)
(0.121095 -0.536461 0)
(0.113 -0.507211 0)
(0.105658 -0.479801 0)
(0.098966 -0.454078 0)
(0.0928416 -0.429909 0)
(0.0872153 -0.407175 0)
(0.0820294 -0.385768 0)
(0.0772348 -0.365593 0)
(0.07279 -0.346562 0)
(0.0686596 -0.328599 0)
(0.0648129 -0.311632 0)
(0.0612234 -0.295595 0)
(0.057868 -0.28043 0)
(0.940679 -1.26041 0)
(0.826106 -1.23776 0)
(0.721953 -1.19798 0)
(0.63111 -1.14756 0)
(0.553782 -1.09179 0)
(0.488725 -1.03434 0)
(0.434169 -0.9775 0)
(0.388314 -0.922586 0)
(0.349556 -0.870276 0)
(0.316555 -0.820858 0)
(0.288226 -0.774391 0)
(0.263704 -0.730807 0)
(0.242303 -0.689972 0)
(0.223482 -0.651722 0)
(0.206811 -0.615881 0)
(0.191945 -0.582279 0)
(0.178608 -0.55075 0)
(0.166577 -0.521142 0)
(0.155669 -0.493314 0)
(0.145735 -0.467135 0)
(0.136649 -0.442487 0)
(0.12831 -0.419262 0)
(0.120629 -0.397363 0)
(0.113533 -0.376698 0)
(0.106961 -0.357186 0)
(0.100857 -0.338752 0)
(0.0951773 -0.321327 0)
(0.0898808 -0.304847 0)
(0.0849329 -0.289254 0)
(0.0803032 -0.274495 0)
(0.953281 -1.09738 0)
(0.861781 -1.08396 0)
(0.775566 -1.05909 0)
(0.696774 -1.02564 0)
(0.626314 -0.986488 0)
(0.564175 -0.944081 0)
(0.509796 -0.900272 0)
(0.462354 -0.856371 0)
(0.420956 -0.813253 0)
(0.384746 -0.77147 0)
(0.352953 -0.731342 0)
(0.32491 -0.693037 0)
(0.300051 -0.656617 0)
(0.277899 -0.622082 0)
(0.258061 -0.589387 0)
(0.240207 -0.558466 0)
(0.224063 -0.529238 0)
(0.209404 -0.501618 0)
(0.196037 -0.475517 0)
(0.183804 -0.450849 0)
(0.17257 -0.427531 0)
(0.16222 -0.405484 0)
(0.152658 -0.384631 0)
(0.143801 -0.364902 0)
(0.135577 -0.346232 0)
(0.127924 -0.328556 0)
(0.120789 -0.311819 0)
(0.114124 -0.295965 0)
(0.10789 -0.280943 0)
(0.102048 -0.266707 0)
(0.961301 -0.966046 0)
(0.884966 -0.957249 0)
(0.811629 -0.940496 0)
(0.742741 -0.917177 0)
(0.679175 -0.888883 0)
(0.621283 -0.857138 0)
(0.569024 -0.823259 0)
(0.522105 -0.788303 0)
(0.480092 -0.753077 0)
(0.442494 -0.718167 0)
(0.408817 -0.683986 0)
(0.378593 -0.650808 0)
(0.351396 -0.61881 0)
(0.326849 -0.588091 0)
(0.30462 -0.5587 0)
(0.284424 -0.53065 0)
(0.266012 -0.503926 0)
(0.249173 -0.478501 0)
(0.233726 -0.454332 0)
(0.219512 -0.431373 0)
(0.206399 -0.409573 0)
(0.194269 -0.388881 0)
(0.183023 -0.369242 0)
(0.172572 -0.350607 0)
(0.162843 -0.332924 0)
(0.153767 -0.316145 0)
(0.145287 -0.300223 0)
(0.137352 -0.285114 0)
(0.129916 -0.270776 0)
(0.12294 -0.257167 0)
(0.966807 -0.855512 0)
(0.901065 -0.849341 0)
(0.837176 -0.837418 0)
(0.776128 -0.820479 0)
(0.718624 -0.799436 0)
(0.665072 -0.77524 0)
(0.615629 -0.748791 0)
(0.570259 -0.720876 0)
(0.52879 -0.692152 0)
(0.490973 -0.663143 0)
(0.456518 -0.634256 0)
(0.425119 -0.605794 0)
(0.396479 -0.577977 0)
(0.370318 -0.550959 0)
(0.346376 -0.524844 0)
(0.324421 -0.499696 0)
(0.304242 -0.475548 0)
(0.285655 -0.452413 0)
(0.268496 -0.430287 0)
(0.25262 -0.409157 0)
(0.237902 -0.388999 0)
(0.22423 -0.369785 0)
(0.211505 -0.351483 0)
(0.199641 -0.334059 0)
(0.188562 -0.317479 0)
(0.178201 -0.301706 0)
(0.168498 -0.286705 0)
(0.159399 -0.272442 0)
(0.150857 -0.258883 0)
(0.14283 -0.245993 0)
(0.970788 -0.759563 0)
(0.912785 -0.755031 0)
(0.856004 -0.746198 0)
(0.801139 -0.733485 0)
(0.74873 -0.71744 0)
(0.699149 -0.698671 0)
(0.652609 -0.677788 0)
(0.609188 -0.655361 0)
(0.568856 -0.631898 0)
(0.531509 -0.607832 0)
(0.496992 -0.583521 0)
(0.465122 -0.559253 0)
(0.435704 -0.535253 0)
(0.40854 -0.511695 0)
(0.383438 -0.488705 0)
(0.360217 -0.466377 0)
(0.33871 -0.444774 0)
(0.318761 -0.423938 0)
(0.300231 -0.403891 0)
(0.282993 -0.384643 0)
(0.266934 -0.366193 0)
(0.25195 -0.348532 0)
(0.237951 -0.331647 0)
(0.224854 -0.315518 0)
(0.212586 -0.300124 0)
(0.201081 -0.285441 0)
(0.19028 -0.271445 0)
(0.18013 -0.258108 0)
(0.170582 -0.245405 0)
(0.161595 -0.23331 0)
(0.973775 -0.674328 0)
(0.921614 -0.67089 0)
(0.870304 -0.66415 0)
(0.820344 -0.654366 0)
(0.77215 -0.641882 0)
(0.726037 -0.627099 0)
(0.682218 -0.610433 0)
(0.640814 -0.592296 0)
(0.601866 -0.573071 0)
(0.565353 -0.553101 0)
(0.531208 -0.532686 0)
(0.499331 -0.512078 0)
(0.4696 -0.491488 0)
(0.441886 -0.471084 0)
(0.416052 -0.451002 0)
(0.391964 -0.431344 0)
(0.369492 -0.41219 0)
(0.348514 -0.393597 0)
(0.328912 -0.375605 0)
(0.310581 -0.358241 0)
(0.293422 -0.34152 0)
(0.277343 -0.325447 0)
(0.262264 -0.310023 0)
(0.248107 -0.29524 0)
(0.234805 -0.281089 0)
(0.222296 -0.267556 0)
(0.210523 -0.254623 0)
(0.199435 -0.242275 0)
(0.188985 -0.230491 0)
(0.179129 -0.219252 0)
(0.976075 -0.597222 0)
(0.928434 -0.594552 0)
(0.88141 -0.589299 0)
(0.835375 -0.581627 0)
(0.790653 -0.571763 0)
(0.747502 -0.559976 0)
(0.706119 -0.546557 0)
(0.666633 -0.531804 0)
(0.629119 -0.516002 0)
(0.5936 -0.499422 0)
(0.560064 -0.482304 0)
(0.528463 -0.464863 0)
(0.498732 -0.447282 0)
(0.470787 -0.429716 0)
(0.444539 -0.412294 0)
(0.419891 -0.395121 0)
(0.396746 -0.378279 0)
(0.37501 -0.361834 0)
(0.354591 -0.345836 0)
(0.3354 -0.33032 0)
(0.317354 -0.315313 0)
(0.300376 -0.30083 0)
(0.284394 -0.286882 0)
(0.269339 -0.27347 0)
(0.255151 -0.260594 0)
(0.241772 -0.248248 0)
(0.229149 -0.236423 0)
(0.217233 -0.225108 0)
(0.205981 -0.21429 0)
(0.19535 -0.203956 0)
(0.97788 -0.526427 0)
(0.933796 -0.524321 0)
(0.890176 -0.520165 0)
(0.847305 -0.51407 0)
(0.805439 -0.50619 0)
(0.764791 -0.496709 0)
(0.725533 -0.485837 0)
(0.687792 -0.473787 0)
(0.651652 -0.460777 0)
(0.617164 -0.447013 0)
(0.584343 -0.432688 0)
(0.553178 -0.417978 0)
(0.523639 -0.403039 0)
(0.49568 -0.388007 0)
(0.469242 -0.372999 0)
(0.444262 -0.358113 0)
(0.42067 -0.34343 0)
(0.398395 -0.329016 0)
(0.377365 -0.314925 0)
(0.35751 -0.301198 0)
(0.338763 -0.287866 0)
(0.321057 -0.274951 0)
(0.30433 -0.262471 0)
(0.288525 -0.250434 0)
(0.273585 -0.238846 0)
(0.25946 -0.227707 0)
(0.246101 -0.217015 0)
(0.233463 -0.206765 0)
(0.221506 -0.196949 0)
(0.210191 -0.187556 0)
(0.979313 -0.460611 0)
(0.938061 -0.458933 0)
(0.897169 -0.455616 0)
(0.856863 -0.450735 0)
(0.817345 -0.444397 0)
(0.778795 -0.436735 0)
(0.741362 -0.427897 0)
(0.705162 -0.418042 0)
(0.670284 -0.407333 0)
(0.636787 -0.395929 0)
(0.604705 -0.383982 0)
(0.574049 -0.371634 0)
(0.544812 -0.359015 0)
(0.516974 -0.346242 0)
(0.490501 -0.333415 0)
(0.465353 -0.320624 0)
(0.441482 -0.307943 0)
(0.418836 -0.295436 0)
(0.397361 -0.283155 0)
(0.377004 -0.271142 0)
(0.357708 -0.25943 0)
(0.339421 -0.248047 0)
(0.322089 -0.237011 0)
(0.305663 -0.226337 0)
(0.290094 -0.216035 0)
(0.275336 -0.20611 0)
(0.261346 -0.196564 0)
(0.248085 -0.187397 0)
(0.235514 -0.178606 0)
(0.2236 -0.170183 0)
(0.98046 -0.398763 0)
(0.941476 -0.39742 0)
(0.90278 -0.394762 0)
(0.864553 -0.390843 0)
(0.826963 -0.385737 0)
(0.79016 -0.37954 0)
(0.754273 -0.372361 0)
(0.719409 -0.364318 0)
(0.685653 -0.355532 0)
(0.653067 -0.346127 0)
(0.621696 -0.336222 0)
(0.591563 -0.325931 0)
(0.562679 -0.315359 0)
(0.53504 -0.304602 0)
(0.50863 -0.293749 0)
(0.483425 -0.282874 0)
(0.459397 -0.272047 0)
(0.436507 -0.261323 0)
(0.414718 -0.250751 0)
(0.393987 -0.240372 0)
(0.374271 -0.23022 0)
(0.355526 -0.220321 0)
(0.337709 -0.210696 0)
(0.320776 -0.201362 0)
(0.304685 -0.192332 0)
(0.289396 -0.183615 0)
(0.274871 -0.175217 0)
(0.261074 -0.167142 0)
(0.247973 -0.15939 0)
(0.235536 -0.151959 0)
(0.981378 -0.340088 0)
(0.944212 -0.339016 0)
(0.907282 -0.336892 0)
(0.870739 -0.333753 0)
(0.834722 -0.329656 0)
(0.79936 -0.324668 0)
(0.764766 -0.318869 0)
(0.731037 -0.312348 0)
(0.698253 -0.305196 0)
(0.666477 -0.297508 0)
(0.635757 -0.289376 0)
(0.606127 -0.280891 0)
(0.577604 -0.272137 0)
(0.550199 -0.263192 0)
(0.523908 -0.25413 0)
(0.49872 -0.245015 0)
(0.474618 -0.235904 0)
(0.451578 -0.226849 0)
(0.429572 -0.217891 0)
(0.40857 -0.209068 0)
(0.388538 -0.200411 0)
(0.369439 -0.191945 0)
(0.351238 -0.183693 0)
(0.333897 -0.17567 0)
(0.31738 -0.16789 0)
(0.301651 -0.160367 0)
(0.286674 -0.153108 0)
(0.27242 -0.146122 0)
(0.258858 -0.139416 0)
(0.245967 -0.132991 0)
(0.982108 -0.283947 0)
(0.94639 -0.2831 0)
(0.910872 -0.281419 0)
(0.875679 -0.278932 0)
(0.840933 -0.275679 0)
(0.806745 -0.271711 0)
(0.773215 -0.267085 0)
(0.740431 -0.261868 0)
(0.708469 -0.256128 0)
(0.67739 -0.249937 0)
(0.647244 -0.243367 0)
(0.618069 -0.236487 0)
(0.589891 -0.229364 0)
(0.562724 -0.222061 0)
(0.536577 -0.214637 0)
(0.511448 -0.207145 0)
(0.487328 -0.199633 0)
(0.464203 -0.192143 0)
(0.442056 -0.184711 0)
(0.420862 -0.177371 0)
(0.400597 -0.170149 0)
(0.38123 -0.163067 0)
(0.362733 -0.156146 0)
(0.345072 -0.1494 0)
(0.328213 -0.142845 0)
(0.312124 -0.136491 0)
(0.296772 -0.130353 0)
(0.282126 -0.124442 0)
(0.268161 -0.118775 0)
(0.254862 -0.113364 0)
(0.982681 -0.229809 0)
(0.948099 -0.229153 0)
(0.91369 -0.22785 0)
(0.879563 -0.225922 0)
(0.845825 -0.223395 0)
(0.812574 -0.220307 0)
(0.779899 -0.2167 0)
(0.747883 -0.212623 0)
(0.716596 -0.208126 0)
(0.686097 -0.203264 0)
(0.656438 -0.19809 0)
(0.627656 -0.192656 0)
(0.599784 -0.187016 0)
(0.572841 -0.181216 0)
(0.546841 -0.175305 0)
(0.521789 -0.169323 0)
(0.497684 -0.163309 0)
(0.474519 -0.157297 0)
(0.452283 -0.151317 0)
(0.43096 -0.145395 0)
(0.41053 -0.139554 0)
(0.390968 -0.133811 0)
(0.372251 -0.128183 0)
(0.354348 -0.122683 0)
(0.337228 -0.117321 0)
(0.320857 -0.112108 0)
(0.3052 -0.107058 0)
(0.290221 -0.102189 0)
(0.275892 -0.0975264 0)
(0.262198 -0.0931095 0)
(0.983117 -0.177223 0)
(0.949402 -0.176734 0)
(0.91584 -0.175763 0)
(0.88253 -0.174324 0)
(0.849566 -0.172437 0)
(0.817038 -0.170128 0)
(0.785028 -0.167427 0)
(0.753613 -0.164369 0)
(0.722858 -0.16099 0)
(0.692822 -0.157329 0)
(0.663554 -0.153424 0)
(0.635096 -0.149316 0)
(0.607479 -0.145042 0)
(0.58073 -0.140638 0)
(0.554864 -0.136139 0)
(0.529891 -0.131577 0)
(0.505818 -0.12698 0)
(0.482641 -0.122375 0)
(0.460354 -0.117785 0)
(0.438948 -0.113229 0)
(0.418407 -0.108725 0)
(0.398713 -0.104285 0)
(0.379843 -0.0999197 0)
(0.361773 -0.0956374 0)
(0.344472 -0.0914431 0)
(0.327903 -0.0873411 0)
(0.312023 -0.0833373 0)
(0.296781 -0.0794454 0)
(0.282121 -0.0756979 0)
(0.267997 -0.0721675 0)
(0.983432 -0.125793 0)
(0.950344 -0.125454 0)
(0.917395 -0.124782 0)
(0.884677 -0.123786 0)
(0.852276 -0.122478 0)
(0.820276 -0.120876 0)
(0.788754 -0.119 0)
(0.757781 -0.116873 0)
(0.72742 -0.114521 0)
(0.697729 -0.111968 0)
(0.668757 -0.109241 0)
(0.640545 -0.106368 0)
(0.613126 -0.103374 0)
(0.586529 -0.100284 0)
(0.560773 -0.0971227 0)
(0.535871 -0.0939116 0)
(0.511831 -0.090671 0)
(0.488657 -0.0874192 0)
(0.466345 -0.084172 0)
(0.444891 -0.080943 0)
(0.424282 -0.0777432 0)
(0.404506 -0.0745808 0)
(0.385546 -0.0714607 0)
(0.367381 -0.0683839 0)
(0.349983 -0.0653471 0)
(0.33332 -0.0623415 0)
(0.317339 -0.0593521 0)
(0.301967 -0.0563604 0)
(0.287081 -0.053356 0)
(0.272502 -0.0503781 0)
(0.983637 -0.0751626 0)
(0.950956 -0.0749638 0)
(0.918406 -0.0745687 0)
(0.886073 -0.0739827 0)
(0.85404 -0.0732133 0)
(0.822385 -0.0722704 0)
(0.791182 -0.0711657 0)
(0.7605 -0.0699122 0)
(0.7304 -0.0685242 0)
(0.700939 -0.0670167 0)
(0.672163 -0.0654053 0)
(0.644117 -0.0637053 0)
(0.616833 -0.061932 0)
(0.590341 -0.0601002 0)
(0.564661 -0.0582238 0)
(0.539811 -0.0563159 0)
(0.5158 -0.0543884 0)
(0.492633 -0.0524518 0)
(0.470312 -0.0505156 0)
(0.448832 -0.0485875 0)
(0.428189 -0.0466733 0)
(0.408372 -0.0447769 0)
(0.389371 -0.0428989 0)
(0.371172 -0.0410359 0)
(0.353762 -0.0391779 0)
(0.33712 -0.0373037 0)
(0.321219 -0.0353723 0)
(0.306 -0.0333051 0)
(0.291318 -0.0309519 0)
(0.276783 -0.0280197 0)
(0.983738 -0.0250025 0)
(0.951257 -0.0249369 0)
(0.918904 -0.0248065 0)
(0.886761 -0.0246132 0)
(0.854909 -0.0243592 0)
(0.823424 -0.0240479 0)
(0.79238 -0.0236831 0)
(0.761842 -0.0232689 0)
(0.731872 -0.0228101 0)
(0.702525 -0.0223116 0)
(0.673848 -0.0217785 0)
(0.645885 -0.0212157 0)
(0.618669 -0.0206285 0)
(0.59223 -0.0200215 0)
(0.566591 -0.0193995 0)
(0.541768 -0.0187666 0)
(0.517772 -0.0181268 0)
(0.494611 -0.0174837 0)
(0.472287 -0.0168402 0)
(0.450798 -0.016199 0)
(0.430141 -0.0155617 0)
(0.41031 -0.0149293 0)
(0.391298 -0.0143014 0)
(0.373102 -0.0136759 0)
(0.355722 -0.0130467 0)
(0.339171 -0.0124012 0)
(0.323487 -0.0117131 0)
(0.308763 -0.0109262 0)
(0.295208 -0.00991613 0)
(0.283298 -0.00839651 0)
(0.0112952 -0.27789 1.78563e-26)
(0.0111744 -0.275665 1.31498e-25)
(0.0110488 -0.27349 1.12925e-25)
(0.0109269 -0.271371 -5.60469e-26)
(0.0108136 -0.269282 0)
(0.0107087 -0.267196 5.69138e-27)
(0.0106094 -0.26511 6.03954e-26)
(0.0105123 -0.263025 -5.98418e-26)
(0.010416 -0.260959 2.741e-29)
(0.0103212 -0.258915 3.20841e-26)
(0.0102282 -0.256886 0)
(0.0101365 -0.254872 0)
(0.0100463 -0.252875 0)
(0.00995738 -0.250894 0)
(0.00986979 -0.248929 0)
(0.00978339 -0.24698 -3.06873e-26)
(0.00969818 -0.245048 -1.26092e-26)
(0.00961413 -0.24313 4.53433e-26)
(0.00953117 -0.241228 2.53307e-27)
(0.00944927 -0.239342 -1.4933e-26)
(0.00936843 -0.23747 -1.48047e-26)
(0.0092886 -0.235614 -1.47395e-26)
(0.00920973 -0.233773 -1.46139e-26)
(0.00913184 -0.231947 -8.5592e-27)
(0.00905488 -0.230136 -2.88945e-26)
(0.00897885 -0.228339 5.93407e-27)
(0.0089037 -0.226557 1.42532e-26)
(0.00882944 -0.22479 5.81018e-27)
(0.00875604 -0.223036 0)
(0.00868347 -0.221297 0)
(0.00861174 -0.219572 5.67544e-27)
(0.00854082 -0.21786 0)
(0.0084707 -0.216163 -6.89118e-27)
(0.00840136 -0.214479 2.78827e-27)
(0.00833278 -0.212809 6.79508e-27)
(0.00826497 -0.211152 0)
(0.00819781 -0.209506 8.45827e-28)
(0.00813123 -0.207869 8.38957e-28)
(0.00806607 -0.206247 6.66414e-28)
(0.0080025 -0.204652 0)
(0.0337795 -0.275988 5.50591e-26)
(0.0334252 -0.273804 1.67283e-25)
(0.0330533 -0.27166 1.11897e-25)
(0.032691 -0.269569 -1.66268e-25)
(0.0323541 -0.267504 0)
(0.0320422 -0.26544 -2.74087e-26)
(0.0317467 -0.263375 8.15565e-26)
(0.0314578 -0.26131 -2.699e-26)
(0.0311711 -0.259264 -1.01067e-25)
(0.0308886 -0.257238 -1.53241e-25)
(0.0306112 -0.255226 -5.26853e-26)
(0.0303379 -0.253229 9.84521e-26)
(0.0300685 -0.25125 9.75759e-26)
(0.0298032 -0.249285 0)
(0.0295418 -0.247336 0)
(0.0292838 -0.245403 0)
(0.0290292 -0.243485 -1.25807e-26)
(0.0287781 -0.241582 0)
(0.0285302 -0.239695 -1.23857e-26)
(0.0282854 -0.237822 0)
(0.0280438 -0.235965 0)
(0.0278051 -0.234123 0)
(0.0275693 -0.232295 0)
(0.0273363 -0.230482 -2.68115e-26)
(0.0271061 -0.228683 -4.42978e-26)
(0.0268786 -0.226899 -3.8126e-26)
(0.0266538 -0.225129 -4.36212e-26)
(0.0264316 -0.223374 4.90949e-26)
(0.0262119 -0.221632 4.29621e-26)
(0.0259947 -0.219905 -1.1364e-26)
(0.02578 -0.218191 5.63904e-27)
(0.0255678 -0.216491 0)
(0.0253579 -0.214805 -2.08606e-26)
(0.0251503 -0.213132 -1.79355e-26)
(0.024945 -0.211472 -1.02766e-26)
(0.024742 -0.209826 7.98621e-30)
(0.0245409 -0.208189 1.0118e-26)
(0.0243406 -0.206553 -2.02707e-26)
(0.0241428 -0.204935 -2.07681e-26)
(0.0239506 -0.203364 -6.57081e-28)
(0.0559752 -0.272182 -9.17901e-26)
(0.0553971 -0.270066 -9.084e-26)
(0.0547851 -0.26798 0)
(0.0541876 -0.265941 -1.08773e-25)
(0.0536323 -0.263924 0)
(0.0531176 -0.261903 1.73666e-25)
(0.0526299 -0.259878 2.25627e-25)
(0.052153 -0.257852 0)
(0.0516795 -0.255844 2.74188e-25)
(0.0512129 -0.253855 1.15094e-25)
(0.0507545 -0.25188 1.14041e-25)
(0.0503029 -0.249918 1.64497e-25)
(0.0498576 -0.247972 -5.10802e-26)
(0.0494191 -0.246042 -5.06978e-26)
(0.0489868 -0.244125 0)
(0.0485601 -0.242224 -1.59021e-25)
(0.0481392 -0.240337 -1.57641e-25)
(0.0477238 -0.238465 0)
(0.0473137 -0.236608 0)
(0.0469087 -0.234765 -1.01134e-25)
(0.0465088 -0.232937 -5.22297e-26)
(0.0461137 -0.231123 2.3848e-26)
(0.0457234 -0.229323 0)
(0.0453378 -0.227538 1.17495e-26)
(0.0449567 -0.225766 0)
(0.0445801 -0.224009 0)
(0.0442078 -0.222265 0)
(0.0438398 -0.220535 9.49004e-26)
(0.043476 -0.218819 8.28276e-26)
(0.0431163 -0.217116 -1.12167e-26)
(0.0427607 -0.215427 2.40966e-26)
(0.0424091 -0.213751 3.49336e-26)
(0.0420613 -0.212089 -1.09566e-26)
(0.0417174 -0.210439 2.35388e-26)
(0.0413773 -0.208803 3.41307e-26)
(0.041041 -0.207179 -5.35311e-27)
(0.0407074 -0.205562 4.20727e-27)
(0.0403741 -0.203938 3.77044e-26)
(0.0400444 -0.202335 3.19503e-26)
(0.0397269 -0.200801 -6.48783e-28)
(0.0776964 -0.266523 1.27742e-25)
(0.0769074 -0.264497 1.26443e-25)
(0.0760658 -0.262496 4.16301e-25)
(0.0752423 -0.260535 -2.46976e-25)
(0.074477 -0.258587 -2.44458e-25)
(0.0737669 -0.256627 2.42031e-25)
(0.0730935 -0.254661 2.14489e-29)
(0.0724348 -0.252694 -4.75257e-25)
(0.0717806 -0.250742 3.03477e-28)
(0.0711355 -0.248808 3.35346e-25)
(0.0705019 -0.246886 0)
(0.0698773 -0.244977 0)
(0.0692615 -0.243083 -4.99951e-26)
(0.0686548 -0.241202 -4.9629e-26)
(0.0680566 -0.239335 0)
(0.0674661 -0.237481 -4.88175e-26)
(0.0668834 -0.235641 -2.68208e-25)
(0.0663084 -0.233816 -1.69753e-25)
(0.0657405 -0.232003 0)
(0.0651796 -0.230205 8.3435e-26)
(0.0646257 -0.22842 1.29791e-25)
(0.0640785 -0.226649 2.33666e-26)
(0.0635378 -0.224892 0)
(0.0630034 -0.223148 -1.03698e-25)
(0.0624753 -0.221417 -8.00061e-26)
(0.0619534 -0.219699 1.02031e-25)
(0.0614374 -0.217995 7.87006e-26)
(0.0609272 -0.216304 1.45039e-25)
(0.0604229 -0.214626 1.32792e-25)
(0.0599242 -0.212961 0)
(0.0594311 -0.211309 -1.09097e-26)
(0.0589434 -0.20967 0)
(0.0584611 -0.208043 -4.82504e-26)
(0.0579841 -0.206429 -4.78561e-26)
(0.0575123 -0.204827 1.05786e-26)
(0.0570456 -0.203238 1.8312e-26)
(0.0565824 -0.201653 2.92198e-26)
(0.0561179 -0.200052 5.80073e-27)
(0.0556578 -0.198476 9.24809e-26)
(0.0552192 -0.19699 9.17523e-26)
(0.0987665 -0.259082 0)
(0.0977834 -0.257166 0)
(0.0967258 -0.255276 7.94524e-25)
(0.0956889 -0.253415 3.14682e-25)
(0.094725 -0.251555 3.11507e-25)
(0.0938295 -0.249677 0)
(0.0929792 -0.247787 -3.05648e-25)
(0.0921473 -0.245895 -3.02911e-25)
(0.0913207 -0.244018 -9.95853e-26)
(0.0905053 -0.242155 3.08907e-28)
(0.089704 -0.240304 -2.94938e-25)
(0.0889141 -0.238463 -9.73041e-26)
(0.0881349 -0.236635 1.93109e-25)
(0.0873671 -0.23482 3.83424e-25)
(0.0866099 -0.233017 2.84881e-25)
(0.0858622 -0.231226 4.72573e-26)
(0.0851242 -0.229448 -8.6978e-29)
(0.0843958 -0.227683 4.67696e-26)
(0.0836764 -0.22593 -1.37741e-25)
(0.0829657 -0.22419 -4.5992e-26)
(0.0822636 -0.222463 4.56616e-26)
(0.08157 -0.220748 -1.3433e-25)
(0.0808844 -0.219046 0)
(0.0802068 -0.217357 -1.32173e-25)
(0.0795371 -0.21568 2.22403e-26)
(0.0788751 -0.214015 -4.40785e-26)
(0.0782205 -0.212363 -1.5084e-25)
(0.0775733 -0.210723 2.17194e-26)
(0.0769333 -0.209096 2.15577e-26)
(0.0763004 -0.207481 -2.13826e-26)
(0.0756745 -0.205877 -6.24555e-26)
(0.0750555 -0.204286 -6.19445e-26)
(0.0744432 -0.202707 7.19301e-26)
(0.0738375 -0.20114 6.09735e-26)
(0.0732384 -0.199584 -3.02491e-26)
(0.0726458 -0.198041 -1.9783e-26)
(0.0720569 -0.196498 0)
(0.0714642 -0.194932 0)
(0.0708764 -0.193395 2.49856e-27)
(0.0703217 -0.191966 0)
(0.119028 -0.249953 0)
(0.117869 -0.248164 3.8812e-25)
(0.116612 -0.246406 1.14279e-24)
(0.115376 -0.244665 7.13952e-27)
(0.114228 -0.242913 -3.81275e-25)
(0.113159 -0.241133 1.93018e-25)
(0.112142 -0.239335 -9.66229e-26)
(0.111147 -0.237535 3.65834e-25)
(0.110158 -0.235747 7.25177e-25)
(0.109182 -0.233971 2.64399e-25)
(0.108223 -0.232205 -3.56275e-25)
(0.107277 -0.230448 -4.46932e-25)
(0.106343 -0.228701 -2.88873e-28)
(0.105423 -0.226966 9.25903e-26)
(0.104515 -0.225241 -9.1716e-26)
(0.103618 -0.223527 9.13357e-26)
(0.102733 -0.221824 4.74329e-25)
(0.101859 -0.220133 3.35574e-25)
(0.100996 -0.218453 8.92831e-26)
(0.100143 -0.216784 -4.44213e-26)
(0.0992996 -0.215127 4.41104e-26)
(0.0984666 -0.213482 4.37261e-26)
(0.0976432 -0.211848 0)
(0.0968292 -0.210225 0)
(0.0960245 -0.208614 0)
(0.0952288 -0.207014 -8.50649e-26)
(0.094442 -0.205426 0)
(0.0936639 -0.203849 0)
(0.0928945 -0.202283 0)
(0.0921334 -0.200729 -2.06701e-26)
(0.0913805 -0.199186 0)
(0.0906358 -0.197654 0)
(0.0898992 -0.196133 7.4258e-26)
(0.0891704 -0.194623 8.36831e-26)
(0.0884494 -0.193124 -9.96373e-27)
(0.0877361 -0.191636 9.89075e-27)
(0.0870266 -0.190147 0)
(0.0863096 -0.188627 4.87129e-27)
(0.0855981 -0.187138 1.46825e-25)
(0.0849334 -0.185775 1.43287e-25)
(0.138338 -0.239245 0)
(0.137022 -0.237596 0)
(0.135584 -0.235989 0)
(0.134168 -0.234387 -6.96297e-25)
(0.13285 -0.232759 -3.61519e-25)
(0.131621 -0.23109 1.30743e-27)
(0.130451 -0.229399 -5.2193e-25)
(0.129305 -0.227704 -6.07615e-25)
(0.128165 -0.22602 6.02615e-25)
(0.127039 -0.224345 4.18547e-25)
(0.125933 -0.222677 -2.36086e-25)
(0.124841 -0.221016 -5.00244e-25)
(0.123763 -0.219364 1.7722e-25)
(0.1227 -0.217721 0)
(0.121652 -0.216087 -8.77037e-26)
(0.120616 -0.214462 0)
(0.119593 -0.212847 4.80903e-25)
(0.118582 -0.211242 3.90964e-25)
(0.117584 -0.209647 2.10015e-28)
(0.116597 -0.208061 1.07567e-25)
(0.115622 -0.206486 1.90676e-25)
(0.114658 -0.204921 4.18883e-26)
(0.113705 -0.203366 0)
(0.112762 -0.201821 0)
(0.11183 -0.200287 0)
(0.110909 -0.198763 -8.14447e-26)
(0.109997 -0.197249 0)
(0.109096 -0.195745 0)
(0.108204 -0.194252 0)
(0.107322 -0.192769 8.8628e-26)
(0.106449 -0.191296 8.79071e-26)
(0.105585 -0.189833 1.95204e-26)
(0.104731 -0.18838 0)
(0.103886 -0.186938 1.14963e-29)
(0.103049 -0.185505 -1.91138e-26)
(0.102222 -0.184083 0)
(0.101397 -0.182656 0)
(0.100561 -0.181193 4.67837e-27)
(0.099731 -0.179762 -2.32114e-27)
(0.0989629 -0.178474 2.30543e-27)
(0.156577 -0.227074 3.22868e-25)
(0.155125 -0.225576 5.11562e-25)
(0.153526 -0.224136 5.06282e-25)
(0.151948 -0.222689 4.93586e-25)
(0.150477 -0.221198 4.96206e-25)
(0.149103 -0.219655 -4.93064e-25)
(0.147792 -0.218082 -9.74515e-25)
(0.146508 -0.216505 -1.71525e-25)
(0.14523 -0.214936 6.49156e-25)
(0.143967 -0.213374 0)
(0.142725 -0.211816 1.69205e-25)
(0.141499 -0.210263 3.82448e-25)
(0.140289 -0.208717 5.46336e-25)
(0.139094 -0.207178 0)
(0.137916 -0.205646 8.25275e-26)
(0.136751 -0.204121 4.51078e-25)
(0.1356 -0.202604 4.4728e-25)
(0.134463 -0.201095 0)
(0.133339 -0.199595 -2.37364e-28)
(0.132228 -0.198103 5.75397e-26)
(0.13113 -0.19662 -2.56223e-29)
(0.130044 -0.195145 -1.35361e-25)
(0.12897 -0.193679 -7.87341e-26)
(0.127908 -0.192223 3.9123e-26)
(0.126857 -0.190775 2.09439e-25)
(0.125818 -0.189336 1.69034e-25)
(0.12479 -0.187906 3.8374e-26)
(0.123773 -0.186485 2.42553e-25)
(0.122767 -0.185074 3.78484e-26)
(0.121772 -0.183671 -2.38772e-25)
(0.120787 -0.182278 -9.97874e-26)
(0.119812 -0.180893 -6.18361e-26)
(0.118847 -0.179518 -1.84398e-26)
(0.117893 -0.178152 -1.83292e-26)
(0.116948 -0.176794 -6.65388e-26)
(0.116013 -0.175446 -5.69835e-26)
(0.115081 -0.174091 -2.92342e-27)
(0.114132 -0.172694 -2.88734e-27)
(0.113188 -0.171331 1.83177e-25)
(0.112324 -0.170124 1.86169e-25)
(0.173639 -0.213567 2.95803e-25)
(0.172074 -0.212227 3.60311e-26)
(0.170335 -0.210967 5.61997e-25)
(0.168615 -0.209688 2.86879e-25)
(0.167009 -0.208346 0)
(0.165505 -0.206939 1.58802e-25)
(0.164068 -0.205495 5.41201e-25)
(0.162659 -0.204045 1.07309e-24)
(0.161256 -0.202602 1.06385e-24)
(0.159869 -0.201163 3.70339e-25)
(0.158504 -0.199725 0)
(0.157157 -0.19829 -1.55929e-25)
(0.155825 -0.19686 0)
(0.154511 -0.195434 -1.54914e-25)
(0.153214 -0.194013 3.56779e-28)
(0.151931 -0.192598 0)
(0.150663 -0.191189 -5.73624e-25)
(0.14941 -0.189786 -4.17108e-25)
(0.148171 -0.18839 7.58447e-26)
(0.146946 -0.187001 -7.54301e-26)
(0.145735 -0.185618 0)
(0.144537 -0.184243 7.45642e-26)
(0.143352 -0.182876 -3.10812e-25)
(0.14218 -0.181516 -1.24412e-25)
(0.14102 -0.180163 2.32894e-25)
(0.139873 -0.178818 2.30998e-25)
(0.138737 -0.177481 3.6165e-26)
(0.137614 -0.176151 6.10579e-29)
(0.136502 -0.174829 3.57132e-26)
(0.135401 -0.173516 7.63847e-26)
(0.134312 -0.17221 -1.28927e-29)
(0.133234 -0.170912 -5.75804e-26)
(0.132168 -0.169622 -3.47892e-26)
(0.131111 -0.168339 1.72756e-26)
(0.130066 -0.167065 0)
(0.129031 -0.165799 -8.53261e-27)
(0.127998 -0.164523 3.55292e-30)
(0.126943 -0.163201 8.41952e-27)
(0.125892 -0.161914 -2.086e-25)
(0.12494 -0.160795 -2.07022e-25)
(0.189444 -0.198852 0)
(0.187786 -0.197676 1.48046e-25)
(0.185928 -0.196605 6.13699e-25)
(0.184086 -0.195505 0)
(0.182364 -0.194321 2.67841e-25)
(0.180746 -0.193059 -2.85545e-25)
(0.179197 -0.191752 -5.91368e-25)
(0.177676 -0.190439 -5.86348e-25)
(0.176162 -0.18913 4.37758e-25)
(0.174665 -0.187822 4.31241e-25)
(0.17319 -0.186513 -5.71587e-25)
(0.171733 -0.185204 -5.67779e-25)
(0.170293 -0.183898 -1.43203e-25)
(0.168871 -0.182593 -1.43699e-25)
(0.167466 -0.181292 7.07767e-26)
(0.166077 -0.179994 0)
(0.164704 -0.178701 -6.85407e-25)
(0.163346 -0.177412 -3.9829e-25)
(0.162004 -0.176128 -7.00148e-26)
(0.160676 -0.174849 2.65304e-25)
(0.159362 -0.173575 2.63134e-25)
(0.158062 -0.172308 0)
(0.156776 -0.171046 0)
(0.155503 -0.16979 3.25367e-25)
(0.154244 -0.16854 4.41611e-25)
(0.152998 -0.167296 3.2032e-25)
(0.151764 -0.166059 0)
(0.150543 -0.164828 1.81846e-25)
(0.149335 -0.163603 3.32066e-26)
(0.148138 -0.162385 -2.44803e-25)
(0.146954 -0.161174 0)
(0.145781 -0.159969 3.26995e-26)
(0.144621 -0.158771 -1.62501e-26)
(0.143471 -0.15758 1.6151e-26)
(0.142334 -0.156395 0)
(0.141207 -0.155218 -1.59427e-26)
(0.140081 -0.154028 -2.24101e-26)
(0.138926 -0.152789 -1.43633e-26)
(0.137776 -0.151587 3.91078e-27)
(0.136744 -0.15056 0)
(0.203921 -0.183059 0)
(0.202192 -0.182049 1.03043e-24)
(0.200237 -0.181176 1.02591e-24)
(0.198293 -0.180263 0)
(0.196473 -0.179245 2.39419e-25)
(0.194757 -0.178134 -2.58515e-25)
(0.19311 -0.176972 6.37521e-25)
(0.191492 -0.175802 1.26435e-24)
(0.189881 -0.174634 4.96151e-25)
(0.188286 -0.173464 0)
(0.186714 -0.17229 0)
(0.185161 -0.171115 7.42372e-25)
(0.183625 -0.169939 1.21159e-24)
(0.182107 -0.168762 6.01288e-25)
(0.180608 -0.167588 2.60023e-25)
(0.179124 -0.166414 0)
(0.177657 -0.165243 -6.48371e-26)
(0.176206 -0.164074 6.46079e-26)
(0.17477 -0.162909 -3.07518e-28)
(0.17335 -0.161747 2.8631e-25)
(0.171944 -0.160589 -2.09416e-29)
(0.170554 -0.159435 -5.63444e-25)
(0.169177 -0.158285 -4.9593e-25)
(0.167814 -0.157139 -2.77228e-25)
(0.166465 -0.155998 2.12405e-25)
(0.16513 -0.154862 6.22936e-26)
(0.163808 -0.153731 -2.70674e-25)
(0.162499 -0.152604 -2.99397e-25)
(0.161204 -0.151483 -2.35737e-25)
(0.159921 -0.150367 1.32169e-25)
(0.15865 -0.149256 -1.1177e-29)
(0.157392 -0.148151 1.10983e-29)
(0.156147 -0.147051 2.88125e-25)
(0.154913 -0.145957 1.42967e-25)
(0.153691 -0.144868 -6.35375e-26)
(0.152481 -0.143784 -1.40832e-25)
(0.151271 -0.142687 -6.25425e-26)
(0.150025 -0.141538 0)
(0.148782 -0.140426 2.53667e-25)
(0.147678 -0.139496 2.44596e-25)
(0.217017 -0.166311 0)
(0.215236 -0.16547 1.28114e-24)
(0.213206 -0.164799 1.00413e-24)
(0.211181 -0.16408 -6.97491e-25)
(0.20928 -0.163233 -6.91209e-25)
(0.207482 -0.16228 0)
(0.205752 -0.161267 6.79475e-25)
(0.204051 -0.160246 9.03045e-25)
(0.202356 -0.159225 4.39986e-25)
(0.200677 -0.158199 6.62719e-25)
(0.199021 -0.157166 -5.41531e-25)
(0.197385 -0.156129 -1.30378e-24)
(0.195765 -0.155089 -4.13391e-25)
(0.194165 -0.154047 -5.25108e-25)
(0.192582 -0.153004 2.33085e-25)
(0.191016 -0.151961 6.30948e-25)
(0.189466 -0.150917 6.25897e-25)
(0.187934 -0.149875 7.36494e-25)
(0.186417 -0.148834 5.79926e-26)
(0.184915 -0.147794 -3.05484e-25)
(0.183429 -0.146757 -3.60412e-25)
(0.181958 -0.145722 0)
(0.180501 -0.144689 2.38614e-28)
(0.179059 -0.143659 -2.95885e-25)
(0.177631 -0.142632 1.99191e-29)
(0.176217 -0.141609 -2.00255e-29)
(0.174817 -0.140589 -5.77849e-25)
(0.17343 -0.139572 2.03431e-29)
(0.172057 -0.13856 5.68807e-25)
(0.170697 -0.137551 3.09862e-25)
(0.16935 -0.136545 0)
(0.168016 -0.135544 0)
(0.166695 -0.134547 -1.10459e-25)
(0.165385 -0.133555 -1.50305e-25)
(0.164089 -0.132566 0)
(0.162804 -0.131582 0)
(0.161518 -0.130583 0)
(0.160188 -0.129529 0)
(0.158861 -0.128514 -2.59761e-25)
(0.157694 -0.127683 -2.61141e-25)
(0.228688 -0.14873 0)
(0.226875 -0.148059 2.05759e-25)
(0.22479 -0.147595 -3.78152e-25)
(0.222704 -0.147074 7.35745e-25)
(0.220741 -0.146402 4.09905e-25)
(0.218875 -0.14561 7.23036e-25)
(0.217075 -0.144751 9.17636e-25)
(0.215304 -0.143883 9.11574e-25)